 Entering Gaussian System, Link 0=g03
 AtFile(1): /home/hugh/basis/6-31g_d_LANL2DZ-ECP_trans-new.gbs
            -C -O -H -N -Cl -Si 0
            6-31G(d)
            ****
            -Sc     0
            S   4   1.00
                  3.7170000             -0.3926292
                  1.0970000              0.7147339
                  0.4164000              0.5509400
                  0.0761000              0.0000000
            S   4   1.00
                  3.7170000              0.2197446
                  1.0970000             -0.4546067
                  0.4164000             -0.6938181
                  0.0761000              1.1260172
            S   1   1.00
                  0.0284000              1.0000000
            P   3   1.00
                 10.4000000             -0.0492615
                  1.3110000              0.6071965
                  0.4266000              0.4917582
            P   1   1.00
                  0.0470000              1.0000000
            P   1   1.00
                  0.0140000              1.0000000
            D   4   1.00
                 15.1300000              0.0379291
                  4.2050000              0.1738360
                  1.3030000              0.4268057
                  0.3680000              0.6238539
            D   1   1.00
                  0.0812000              1.0000000
            ****
            -Ti     0
            S   4   1.00
                  4.3720000             -0.3637098
                  1.0980000              0.8184533
                  0.4178000              0.4184526
                  0.0872000              0.0000000
            S   4   1.00
                  4.3720000              0.2049027
                  1.0980000             -0.5575413
                  0.4178000             -0.5893652
                  0.0872000              1.1451661
            S   1   1.00
                  0.0314000              1.0000000
            P   3   1.00
                 12.5200000             -0.0456908
                  1.4910000              0.6203313
                  0.4859000              0.4765329
            P   1   1.00
                  0.0530000              1.0000000
            P   1   1.00
                  0.0160000              1.0000000
            D   4   1.00
                 20.2100000              0.0341682
                  5.4950000              0.1710006
                  1.6990000              0.4405849
                  0.4840000              0.6114246
            D   1   1.00
                  0.1157000              1.0000000
            ****
            -V     0
            S   4   1.00
                  4.5900000             -0.4277302
                  1.4930000              0.7069691
                  0.5570000              0.5895813
                  0.0975000              0.0000000
            S   4   1.00
                  4.5900000              0.2501081
                  1.4930000             -0.4697777
                  0.5570000             -0.7129415
                  0.0975000              1.1006569
            S   1   1.00
                  0.0342000              1.0000000
            P   3   1.00
                 13.7600000             -0.0482312
                  1.7120000              0.6141161
                  0.5587000              0.4838342
            P   1   1.00
                  0.0590000              1.0000000
            P   1   1.00
                  0.0180000              1.0000000
            D   4   1.00
                 25.7000000              0.0331033
                  6.5300000              0.1795753
                  2.0780000              0.4373062
                  0.6243000              0.5984860
            D   1   1.00
                  0.1542000              1.0000000
            ****
            -Cr     0
            S   4   1.00
                  5.3610000             -0.3805689
                  1.4490000              0.7795625
                  0.5496000              0.4730777
                  0.1052000              0.0000000
            S   4   1.00
                  5.3610000              0.2203111
                  1.4490000             -0.5423391
                  0.5496000             -0.6047716
                  0.1052000              1.1136657
            S   1   1.00
                  0.0364000              1.0000000
            P   3   1.00
                 16.4200000             -0.0461397
                  1.9140000              0.6109965
                  0.6241000              0.4859635
            P   1   1.00
                  0.0630000              1.0000000
            P   1   1.00
                  0.0190000              1.0000000
            D   4   1.00
                 28.9500000              0.0337787
                  7.7080000              0.1780345
                  2.4950000              0.4370008
                  0.7655000              0.5941795
            D   1   1.00
                  0.1889000              1.0000000
            ****
            -Mn     0
            S   4   1.00
                  5.9140000             -0.3764508
                  1.6050000              0.7724789
                  0.6260000              0.4769346
                  0.1115000              0.0000000
            S   4   1.00
                  5.9140000              0.2119966
                  1.6050000             -0.5199472
                  0.6260000             -0.5857681
                  0.1115000              1.1003964
            S   1   1.00
                  0.0380000              1.0000000
            P   3   1.00
                 18.2000000             -0.0447901
                  2.1410000              0.6260311
                  0.7009000              0.4696329
            P   1   1.00
                  0.0690000              1.0000000
            P   1   1.00
                  0.0210000              1.0000000
            D   4   1.00
                 32.2700000              0.0341580
                  8.8750000              0.1761105
                  2.8900000              0.4394298
                  0.8761000              0.5943271
            D   1   1.00
                  0.2120000              1.0000000
            ****
            -Fe     0
            S   4   1.00
                  6.4220000             -0.3927882
                  1.8260000              0.7712643
                  0.7135000              0.4920228
                  0.1021000              0.0000000
            S   4   1.00
                  6.4220000              0.1786877
                  1.8260000             -0.4194032
                  0.7135000             -0.4568185
                  0.1021000              1.1035048
            S   1   1.00
                  0.0363000              1.0000000
            P   3   1.00
                 19.4800000             -0.0470282
                  2.3890000              0.6248841
                  0.7795000              0.4722542
            P   1   1.00
                  0.0740000              1.0000000
            P   1   1.00
                  0.0220000              1.0000000
            D   4   1.00
                 37.0800000              0.0329000
                 10.1000000              0.1787418
                  3.2200000              0.4487657
                  0.9628000              0.5876361
            D   1   1.00
                  0.2262000              1.0000000
            ****
            -Mo     0
            S   4   1.00
                  2.3610000             -0.9121760
                  1.3090000              1.1477453
                  0.4500000              0.6097109
                  0.1681000              0.0000000
            S   4   1.00
                  2.3610000              0.8139259
                  1.3090000             -1.1360084
                  0.4500000             -1.1611592
                  0.1681000              1.0064786
            S   1   1.00
                  0.0423000              1.0000000
            P   5   1.00
                  4.8950000             -0.0908258
                  1.0440000              0.7042899
                  0.3877000              0.3973179
                  0.4995000              0.0000000
                  0.0780000              0.0000000
            P   5   1.00
                  4.8950000              0.0000000
                  1.0440000              0.0000000
                  0.3877000              0.0000000
                  0.4995000             -0.1081945
                  0.0780000              1.0368093
            P   1   1.00
                  0.0247000              1.0000000
            D   3   1.00
                  2.9930000              0.0527063
                  1.0630000              0.5003907
                  0.3721000              0.5794024
            D   1   1.00
                  0.1178000              1.0000000
            ****
            -Cr     0
            S   3   1.00
                  5.3610000             -0.3805689
                  1.4490000              0.7795625
                  0.5496000              0.4730777
            S   4   1.00
                  5.3610000              0.2203111
                  1.4490000             -0.5423391
                  0.5496000             -0.6047716
                  0.1052000              1.1136657
            S   1   1.00
                  0.0364000              1.0000000
            P   3   1.00
                 16.4200000             -0.0461397
                  1.9140000              0.6109965
                  0.6241000              0.4859635
            P   1   1.00
                  0.0630000              1.0000000
            P   1   1.00
                  0.0190000              1.0000000
            D   4   1.00
                 28.9500000              0.0337787
                  7.7080000              0.1780345
                  2.4950000              0.4370008
                  0.7655000              0.5941795
            D   1   1.00
                  0.1889000              1.0000000
            ****
            -Co     0
            S   3   1.00
                  7.1760000             -0.3856734
                  2.0090000              0.7453116
                  0.8055000              0.5091819
            S   4   1.00
                  7.1760000              0.1736161
                  2.0090000             -0.3970442
                  0.8055000             -0.4630622
                  0.1070000              1.0899654
            S   1   1.00
                  0.0375000              1.0000000
            P   3   1.00
                 21.3900000             -0.0480413
                  2.6500000              0.6222337
                  0.8619000              0.4758042
            P   1   1.00
                  0.0800000              1.0000000
            P   1   1.00
                  0.0230000              1.0000000
            D   4   1.00
                 39.2500000              0.0361541
                 10.7800000              0.1896744
                  3.4960000              0.4524981
                  1.0660000              0.5710427
            D   1   1.00
                  0.2606000              1.0000000
            ****
            -Ni     0
            S   3   1.00
                  7.6200000             -0.4082550
                  2.2940000              0.7455308
                  0.8760000              0.5325721
            S   4   1.00
                  7.6200000              0.1872591
                  2.2940000             -0.3966964
                  0.8760000             -0.4954003
                  0.1153000              1.0844343
            S   1   1.00
                  0.0396000              1.0000000
            P   3   1.00
                 23.6600000             -0.0481558
                  2.8930000              0.6258473
                  0.9435000              0.4715158
            P   1   1.00
                  0.0840000              1.0000000
            P   1   1.00
                  0.0240000              1.0000000
            D   4   1.00
                 42.7200000              0.0372699
                 11.7600000              0.1956103
                  3.8170000              0.4561273
                  1.1690000              0.5621587
            D   1   1.00
                  0.2836000              1.0000000
            ****
            -Zn     0
            S   2   1.00
                  0.7997000             -0.6486112
                  0.1752000              1.3138291
            S   1   1.00
                  0.0556000              1.0000000
            P   1   1.00
                  0.1202000              1.0000000
            P   1   1.00
                  0.0351000              1.0000000
            D   4   1.00
                 68.8500000              0.0258532
                 18.3200000              0.1651195
                  5.9220000              0.4468212
                  1.9270000              0.5831080
            D   1   1.00
                  0.5528000              1.0000000
            ****
            
            -CR     0
            CR-ECP     2     10
            d potential
              3
            1    329.2720539            -10.0000000
            2     59.5487597            -57.9409398
            2     14.8265966            -10.2623285
            s-d potential
              5
            0    100.0260653              3.0000000
            1     67.8468124             25.2534599
            2     34.6771006            210.6472366
            2      7.6757005            235.2819587
            2      7.2077427           -152.5343461
            p-d potential
              5
            0     47.9723321              5.0000000
            1     59.6224873              5.6390266
            2     26.0432600            164.8362198
            2      6.5582692            106.0168018
            2      6.1268236            -69.8585468
            -CO     0
            CO-ECP     2     10
            d potential
              3
            1    434.1076104            -10.0000000
            2     78.8402758            -66.7240276
            2     19.6037749            -11.7192243
            s-d potential
              4
            0    151.2307582              3.0000000
            1    169.6790026             20.1553110
            2     64.9909423            413.3762244
            2     12.5076287            133.8727705
            p-d potential
              4
            0     92.7319924              5.0000000
            1    121.1910183              6.1892353
            2     48.6265909            326.3215919
            2     11.9966971             73.8788970
            -NI     0
            NI-ECP     2     10
            d potential
              3
            1    469.9324331            -10.0000000
            2     85.4236411            -69.4084805
            2     21.2674984            -12.0951020
            s-d potential
              4
            0    162.1686097              3.0000000
            1    176.5333232             22.0253618
            2     68.9562010            443.0181088
            2     13.5792838            145.5696411
            p-d potential
              4
            0     69.0181506              5.0000000
            1    275.5955596              4.9882824
            2     47.1315453            256.6945853
            2     12.9874075             78.4754450
            -ZN     0
            ZN-ECP     3     18
            f potential
              5
            1    386.7379660            -18.0000000
            2     72.8587359           -124.3527403
            2     15.9066170            -30.6601822
            2      4.3502340            -10.6358989
            2      1.2842199             -0.7683623
            s-f potential
              5
            0     19.0867858              3.0000000
            1      5.0231080             22.5234225
            2      1.2701744             48.4465942
            2      1.0671287            -44.5560119
            2      0.9264190             12.9983958
            p-f potential
              5
            0     43.4927750              5.0000000
            1     20.8692669             20.7435589
            2     21.7118378             90.3027158
            2      6.3616915             74.6610316
            2      1.2291195              9.8894424
            d-f potential
              3
            2     13.5851800             -4.8490359
            2      9.8373050              3.6913379
            2      0.8373113             -0.5037319
            -SC     0
            SC-ECP     2     10
            d potential
              3
            1    237.3166528            -10.0000000
            2     42.6489004            -48.9695553
            2     10.6211229             -8.7066044
            s-d potential
              5
            0     69.2552324              3.0000000
            1     58.8953416             17.0584559
            2     27.2637459            167.9595412
            2      5.4737304            179.8382113
            2      5.1523607           -121.1523144
            p-d potential
              6
            0     77.2512970              5.0000000
            1     44.4527155              6.1088195
            2     53.6854752            192.9384914
            2     18.9421170            127.2274755
            2      4.7970573             68.0945974
            2      4.4142925            -41.6469108
            -TI     0
            TI-ECP     2     10
            d potential
              3
            1    265.3263909            -10.0000000
            2     47.7687815            -51.8427816
            2     11.8903334             -9.1429145
            s-d potential
              5
            0     81.4730696              3.0000000
            1     72.6496724             19.4825579
            2     31.8128213            207.3349279
            2      6.1664468            235.6744501
            2      5.8268347           -166.8784387
            p-d potential
              5
            0     50.2966943              5.0000000
            1     63.5089754              5.5348822
            2     26.0996084            177.8419384
            2      5.6022573            107.4207153
            2      5.2171069            -71.9065902
            -V     0
            V-ECP     2     10
            d potential
              3
            1    296.4487582            -10.0000000
            2     53.5015052            -54.8909808
            2     13.3204510             -9.7010586
            s-d potential
              5
            0     93.2193654              3.0000000
            1     71.1029567             22.5345689
            2     33.8766993            216.5634009
            2      6.8691200            252.6822538
            2      6.4804722           -176.2671654
            p-d potential
              5
            0     52.0953977              5.0000000
            1     65.6778411              5.7003555
            2     27.4703764            182.9054274
            2      6.2352020            117.2756226
            2      5.8139909            -78.5829134
            -CR     0
            CR-ECP     2     10
            d potential
              3
            1    329.2720539            -10.0000000
            2     59.5487597            -57.9409398
            2     14.8265966            -10.2623285
            s-d potential
              5
            0    100.0260653              3.0000000
            1     67.8468124             25.2534599
            2     34.6771006            210.6472366
            2      7.6757005            235.2819587
            2      7.2077427           -152.5343461
            p-d potential
              5
            0     47.9723321              5.0000000
            1     59.6224873              5.6390266
            2     26.0432600            164.8362198
            2      6.5582692            106.0168018
            2      6.1268236            -69.8585468
            -MN     0
            MN-ECP     2     10
            d potential
              3
            1    357.3914469            -10.0000000
            2     64.6477389            -60.2990287
            2     16.0960833            -10.4217834
            s-d potential
              5
            0    107.4127215              3.0000000
            1    111.4958973             16.2591819
            2     46.5568346            276.9373928
            2      8.3688135            241.3174342
            2      7.7237489           -146.4635329
            p-d potential
              5
            0     80.0415103              5.0000000
            1    105.6043646              5.7589756
            2     40.8300466            285.2918654
            2      8.0098457            143.4222647
            2      7.3390928            -88.7031851
            -FE     0
            FE-ECP     2     10
            d potential
              3
            1    392.6149787            -10.0000000
            2     71.1756979            -63.2667518
            2     17.7320281            -10.9613338
            s-d potential
              5
            0    126.0571895              3.0000000
            1    138.1264251             18.1729137
            2     54.2098858            339.1231164
            2      9.2837966            317.1068012
            2      8.6289082           -207.3421649
            p-d potential
              5
            0     83.1759490              5.0000000
            1    106.0559938              5.9535930
            2     42.8284937            294.2665527
            2      8.7701805            154.4244635
            2      8.0397818            -95.3164249
            -MO     0
            MO-ECP     3     28
            f potential
              5
            0    537.9667807             -0.0469492
            1    147.8982938            -20.2080084
            2     45.7358898           -106.2116302
            2     13.2911467            -41.8107368
            2      4.7059961             -4.2054103
            s-f potential
              3
            0    110.2991760              2.8063717
            1     23.2014645             44.5162012
            2      5.3530131             82.7785227
            p-f potential
              4
            0     63.2901397              4.9420876
            1     23.3315302             25.8604976
            2     24.6759423            132.4708742
            2      4.6493040             57.3149794
            d-f potential
              5
            0    104.4839977              3.0054591
            1     66.2307245             26.3637851
            2     39.1283176            183.3849199
            2     13.1164437             98.4453068
            2      3.6280263             22.4901377
            
            
 Initial command:
 /usr/local/g03/l1.exe /home/hugh/Gau-12634.inp -scrdir=/home/hugh/
 Entering Link 1 = /usr/local/g03/l1.exe PID=     12635.
  
 Copyright (c) 1988,1990,1992,1993,1995,1998,2003,2004, Gaussian, Inc.
                  All Rights Reserved.
  
 This is the Gaussian(R) 03 program.  It is based on the
 the Gaussian(R) 98 system (copyright 1998, Gaussian, Inc.),
 the Gaussian(R) 94 system (copyright 1995, Gaussian, Inc.),
 the Gaussian 92(TM) system (copyright 1992, Gaussian, Inc.),
 the Gaussian 90(TM) system (copyright 1990, Gaussian, Inc.),
 the Gaussian 88(TM) system (copyright 1988, Gaussian, Inc.),
 the Gaussian 86(TM) system (copyright 1986, Carnegie Mellon
 University), and the Gaussian 82(TM) system (copyright 1983,
 Carnegie Mellon University). Gaussian is a federally registered
 trademark of Gaussian, Inc.
  
 This software contains proprietary and confidential information,
 including trade secrets, belonging to Gaussian, Inc.
  
 This software is provided under written license and may be
 used, copied, transmitted, or stored only in accord with that
 written license.
  
 The following legend is applicable only to US Government
 contracts under FAR:
  
                    RESTRICTED RIGHTS LEGEND
  
 Use, reproduction and disclosure by the US Government is
 subject to restrictions as set forth in subparagraphs (a)
 and (c) of the Commercial Computer Software - Restricted
 Rights clause in FAR 52.227-19.
  
 Gaussian, Inc.
 340 Quinnipiac St., Bldg. 40, Wallingford CT 06492
  
  
 ---------------------------------------------------------------
 Warning -- This program may not be used in any manner that
 competes with the business of Gaussian, Inc. or will provide
 assistance to any competitor of Gaussian, Inc.  The licensee
 of this program is prohibited from giving any competitor of
 Gaussian, Inc. access to this program.  By using this program,
 the user acknowledges that Gaussian, Inc. is engaged in the
 business of creating and licensing software in the field of
 computational chemistry and represents and warrants to the
 licensee that it is not a competitor of Gaussian, Inc. and that
 it will not use this program in any manner prohibited above.
 ---------------------------------------------------------------
  

 Cite this work as:
 Gaussian 03, Revision D.01,
 M. J. Frisch, G. W. Trucks, H. B. Schlegel, G. E. Scuseria, 
 M. A. Robb, J. R. Cheeseman, J. A. Montgomery, Jr., T. Vreven, 
 K. N. Kudin, J. C. Burant, J. M. Millam, S. S. Iyengar, J. Tomasi, 
 V. Barone, B. Mennucci, M. Cossi, G. Scalmani, N. Rega, 
 G. A. Petersson, H. Nakatsuji, M. Hada, M. Ehara, K. Toyota, 
 R. Fukuda, J. Hasegawa, M. Ishida, T. Nakajima, Y. Honda, O. Kitao, 
 H. Nakai, M. Klene, X. Li, J. E. Knox, H. P. Hratchian, J. B. Cross, 
 V. Bakken, C. Adamo, J. Jaramillo, R. Gomperts, R. E. Stratmann, 
 O. Yazyev, A. J. Austin, R. Cammi, C. Pomelli, J. W. Ochterski, 
 P. Y. Ayala, K. Morokuma, G. A. Voth, P. Salvador, J. J. Dannenberg, 
 V. G. Zakrzewski, S. Dapprich, A. D. Daniels, M. C. Strain, 
 O. Farkas, D. K. Malick, A. D. Rabuck, K. Raghavachari, 
 J. B. Foresman, J. V. Ortiz, Q. Cui, A. G. Baboul, S. Clifford, 
 J. Cioslowski, B. B. Stefanov, G. Liu, A. Liashenko, P. Piskorz, 
 I. Komaromi, R. L. Martin, D. J. Fox, T. Keith, M. A. Al-Laham, 
 C. Y. Peng, A. Nanayakkara, M. Challacombe, P. M. W. Gill, 
 B. Johnson, W. Chen, M. W. Wong, C. Gonzalez, and J. A. Pople, 
 Gaussian, Inc., Wallingford CT, 2004.
 
 ******************************************
 Gaussian 03:  AM64L-G03RevD.01 13-Oct-2005
                24-Nov-2009 
 ******************************************
 %chk=species2_prime.chk
 %nprocs=4
 Will use up to    4 processors via shared memory.
 %mem=200MW
 -------------------------------------------------------
 # b3lyp/GENECP 6D int(grid=ultrafine) stable=opt scf=qc
 -------------------------------------------------------
 1/38=1/1;
 2/17=6,18=5,40=1/2;
 3/5=7,8=2,11=2,16=1,17=8,25=1,30=1,74=-5,75=5/1,2,3;
 4//1;
 5/5=2,8=3,38=5/8;
 6/7=2,8=2,9=2,10=2,28=1/1;
 8/6=1,10=90,11=11/1;
 9/8=-3,42=1,46=1/14;
 5/5=2,8=3,17=40,38=5/8(-2);
 6/7=2,8=2,9=2,10=2,28=1/1;
 99/5=1,9=1/99;
 -----------------------------------------
 comment: from , form a guess using SCF=QC
 -----------------------------------------
 Symbolic Z-matrix:
 Charge =  0 Multiplicity = 1
 C                     2.17627  -1.05122   0.77292 
 Si                    3.53382   5.18968   4.59473 
 Si                    2.40627   4.59677   1.69445 
 V                     2.15015   1.42687   2.31169 
 Si                    2.70214   2.24724   5.40356 
 Si                    0.73183   6.25793   5.48823 
 Si                   -0.48993   5.6275    2.6493 
 Si                   -2.24534   3.20239   3.79575 
 Si                   -0.19661   3.33468   6.25571 
 O                     3.31684   5.09656   2.96567 
 O                     2.58944   2.95064   1.53402 
 O                     2.8075    1.44267   3.95043 
 O                     3.48484   3.68278   5.25661 
 O                     2.3582    6.12613   5.25818 
 O                     0.8288    4.93006   1.95133 
 O                    -2.18917   1.82252   2.92212 
 O                     1.12711   2.48557   5.76388 
 O                    -1.59777   4.47808   2.96861 
 O                    -1.42438   3.05886   5.22296 
 O                     0.1817    4.93615   6.29443 
 H                     4.8411    5.7904    4.86979 
 H                     2.89136   5.23223   0.46432 
 O                     0.5642    1.29532   2.37337 
 H                     3.36481   1.43191   6.42753 
 H                     0.46493   7.46018   6.28193 
 H                    -3.65758   3.48017   4.08085 
 H                    -0.57939   2.90636   7.60539 
 O                    -0.02203   6.3867    4.03333 
 H                    -1.05896   6.62273   1.73436 
 O                     2.76605   0.0734    1.41073 
 H                     2.45154  -1.03157  -0.28678 
 H                     2.57325  -1.96035   1.23669 
 H                     1.08581  -1.02572   0.87553 
 H                    -1.30138   1.51498   2.65878 
 
                          Input orientation:                          
 ---------------------------------------------------------------------
 Center     Atomic     Atomic              Coordinates (Angstroms)
 Number     Number      Type              X           Y           Z
 ---------------------------------------------------------------------
    1          6             0        2.176272   -1.051223    0.772916
    2         14             0        3.533817    5.189684    4.594734
    3         14             0        2.406265    4.596772    1.694452
    4         23             0        2.150145    1.426870    2.311686
    5         14             0        2.702140    2.247239    5.403563
    6         14             0        0.731827    6.257931    5.488233
    7         14             0       -0.489926    5.627502    2.649297
    8         14             0       -2.245339    3.202386    3.795751
    9         14             0       -0.196608    3.334679    6.255712
   10          8             0        3.316836    5.096559    2.965671
   11          8             0        2.589443    2.950643    1.534021
   12          8             0        2.807500    1.442669    3.950429
   13          8             0        3.484842    3.682778    5.256606
   14          8             0        2.358199    6.126125    5.258180
   15          8             0        0.828795    4.930063    1.951332
   16          8             0       -2.189168    1.822518    2.922119
   17          8             0        1.127112    2.485565    5.763881
   18          8             0       -1.597772    4.478082    2.968606
   19          8             0       -1.424376    3.058863    5.222957
   20          8             0        0.181696    4.936152    6.294433
   21          1             0        4.841101    5.790401    4.869793
   22          1             0        2.891355    5.232234    0.464317
   23          8             0        0.564201    1.295318    2.373369
   24          1             0        3.364810    1.431909    6.427530
   25          1             0        0.464927    7.460179    6.281931
   26          1             0       -3.657581    3.480167    4.080851
   27          1             0       -0.579393    2.906361    7.605390
   28          8             0       -0.022032    6.386703    4.033328
   29          1             0       -1.058960    6.622734    1.734360
   30          8             0        2.766051    0.073403    1.410728
   31          1             0        2.451537   -1.031572   -0.286777
   32          1             0        2.573247   -1.960351    1.236687
   33          1             0        1.085813   -1.025725    0.875533
   34          1             0       -1.301376    1.514983    2.658779
 ---------------------------------------------------------------------
                    Distance matrix (angstroms):
                    1          2          3          4          5
     1  C    0.000000
     2  Si   7.442993   0.000000
     3  Si   5.727301   3.167736   0.000000
     4  V    2.917095   4.613635   3.239576   0.000000
     5  Si   5.709578   3.162890   4.400608   3.246137   0.000000
     6  Si   8.817277   3.129000   4.467210   5.953253   4.469335
     7  Si   7.432011   4.490759   3.219015   4.972853   5.403836
     8  Si   6.839690   6.163308   5.291237   4.967412   5.289132
     9  Si   7.411326   4.485082   5.401196   4.970143   3.211141
    10  O    6.626031   1.646086   1.641622   3.905827   3.799973
    11  O    4.094499   3.908083   1.664041   1.766247   3.934569
    12  O    4.088341   3.870760   3.898562   1.765742   1.664341
    13  O    6.650308   1.646584   3.832448   3.942473   1.641643
    14  O    8.465519   1.642912   3.878323   5.550505   3.896818
    15  O    6.243408   3.791058   1.632630   3.761407   4.756560
    16  O    5.651064   6.847482   5.506510   4.399864   5.501168
    17  O    6.206395   3.804128   4.759588   3.753010   1.633200
    18  O    7.045401   5.429906   4.203554   4.877327   5.421708
    19  O    7.047009   5.433115   5.430407   4.890409   4.209452
    20  O    8.385353   3.766958   5.120909   5.661460   3.791641
    21  H    8.407945   1.464756   4.175640   5.729359   4.173016
    22  H    6.331541   4.180301   1.467091   4.294527   5.774266
    23  O    3.265957   5.377655   3.841058   1.592586   3.828709
    24  H    6.289136   4.184325   5.773837   4.291341   1.467107
    25  H   10.282116   4.173711   5.745682   7.416443   5.740331
    26  H    8.093811   7.409638   6.611500   6.409029   6.611787
    27  H    8.362946   5.585348   6.834532   6.136984   4.006363
    28  O    8.413416   3.793691   3.817174   5.681756   5.141383
    29  H    8.383360   5.597229   4.014212   6.134221   6.837681
    30  O    1.421065   6.074841   4.546517   1.738660   4.546689
    31  H    1.095037   7.981510   5.967041   3.589817   6.572167
    32  H    1.095074   7.957523   6.575203   3.578813   5.923114
    33  H    1.095573   7.645684   5.833240   3.034890   5.816172
    34  H    4.715499   6.374201   4.916701   3.470048   4.908990
                    6          7          8          9         10
     6  Si   0.000000
     7  Si   3.154311   0.000000
     8  Si   4.589593   3.205779   0.000000
     9  Si   3.161711   4.283609   3.204092   0.000000
    10  O    3.793992   3.856609   5.934199   5.125708   0.000000
    11  O    5.479478   4.229885   5.343586   5.495810   2.680238
    12  O    5.464431   5.484413   5.352729   4.233048   3.818388
    13  O    3.776792   5.136029   5.932946   3.830465   2.697292
    14  O    1.647842   3.894446   5.646194   3.913346   2.689719
    15  O    3.779194   1.646998   3.979579   4.703657   2.692016
    16  O    5.898308   4.176094   1.634143   4.167705   6.406038
    17  O    3.803022   4.710331   3.969987   1.647764   4.409326
    18  O    3.865671   1.628019   1.652547   3.751759   4.953372
    19  O    3.866991   3.754308   1.652724   1.627904   5.632640
    20  O    1.643077   3.770419   3.890997   1.646004   4.575532
    21  H    4.181768   5.777282   7.620303   5.773201   2.535839
    22  H    5.563753   4.045174   6.450144   6.832019   2.540908
    23  O    5.861570   4.467117   3.681521   4.450889   4.730460
    24  H    5.577219   6.836449   6.444736   4.041504   5.041471
    25  H    1.465125   4.179292   5.626316   4.178285   4.971686
    26  H    5.381784   4.085882   1.467267   4.090174   7.245608
    27  H    4.175485   5.654686   4.168496   1.466837   6.442403
    28  O    1.643665   1.646467   3.890940   3.779460   3.735291
    29  H    4.175112   1.466764   4.166006   5.656640   4.795094
    30  O    7.681959   6.556177   6.371256   6.548827   5.287089
    31  H    9.457537   7.849586   7.526890   8.299457   6.991506
    32  H    9.434333   8.303855   7.511420   7.803848   7.303581
    33  H    8.628670   7.063613   6.123820   7.043014   6.843135
    34  H    5.885175   4.191820   2.243011   4.179681   5.852329
                   11         12         13         14         15
    11  O    0.000000
    12  O    2.856670   0.000000
    13  O    3.898128   2.680108   0.000000
    14  O    4.899645   4.883323   2.690589   0.000000
    15  O    2.681815   4.480355   4.419858   3.834695   0.000000
    16  O    5.102412   5.115506   6.411301   6.682571   4.439298
    17  O    4.499603   2.683271   2.692497   3.876208   4.538733
    18  O    4.682294   5.439130   5.630312   4.858796   2.669712
    19  O    5.452587   4.705336   4.948820   4.870032   4.391093
    20  O    5.692189   4.959196   3.682228   2.688312   4.391048
    21  H    4.925603   4.887079   2.535969   2.535421   5.035494
    22  H    2.537927   5.149836   5.071398   4.905550   2.560600
    23  O    2.747037   2.746128   4.747964   5.905697   3.668719
    24  H    5.182102   2.539043   2.540056   4.941286   6.221318
    25  H    6.884194   6.865419   4.943676   2.532241   5.028715
    26  H    6.766982   6.779799   7.241385   6.676586   5.173453
    27  H    6.848723   5.193475   4.757900   4.950325   6.168204
    28  O    4.987268   5.697069   4.594103   2.689547   2.679629
    29  H    5.180273   6.833268   6.457220   4.933650   2.544765
    30  O    2.885291   2.885600   5.323065   7.183639   5.256649
    31  H    4.380909   4.919603   7.349960   9.054716   6.571417
    32  H    4.920013   4.358878   6.988252   9.033811   7.143643
    33  H    4.301861   4.302576   6.864338   8.483839   6.057624
    34  H    4.297054   4.307720   5.861393   6.435216   4.086671
                   16         17         18         19         20
    16  O    0.000000
    17  O    4.417347   0.000000
    18  O    2.721016   4.382771   0.000000
    19  O    2.721638   2.670461   2.669522   0.000000
    20  O    5.166064   2.679678   3.799666   2.692906   0.000000
    21  H    8.304349   5.051242   6.840744   6.844138   4.946655
    22  H    6.593836   6.224317   5.195428   6.781868   6.435850
    23  O    2.856590   3.637187   3.893382   3.896753   5.364394
    24  H    6.579297   2.560842   6.772780   5.199450   4.735995
    25  H    7.079250   5.045161   4.911797   4.905352   2.539899
    26  H    2.499339   5.168666   2.544747   2.543444   4.664749
    27  H    5.069430   2.545660   5.000717   2.532438   2.533361
    28  O    5.173302   4.419754   2.694332   3.802145   2.694105
    29  H    5.072496   6.175121   2.532432   5.000501   5.017774
    30  O    5.467897   5.239713   6.393053   6.403572   7.360421
    31  H    6.322894   7.122838   7.573025   7.881087   9.169418
    32  H    6.311210   6.507915   7.864500   7.554062   8.880432
    33  H    4.798594   6.018871   6.471049   6.471862   8.107150
    34  H    0.975756   4.059710   2.993960   2.995614   5.207867
                   21         22         23         24         25
    21  H    0.000000
    22  H    4.849874   0.000000
    23  O    6.688032   4.955747   0.000000
    24  H    4.858233   7.087068   4.929329   0.000000
    25  H    4.892156   6.685501   7.300152   6.691081   0.000000
    26  H    8.842353   7.683594   5.050990   7.682203   6.138430
    27  H    6.721825   8.273494   5.592612   4.372425   4.855863
    28  O    4.970444   4.749575   5.387145   6.461647   2.538837
    29  H    6.733085   4.376241   5.605742   8.278904   4.868670
    30  O    6.996787   5.246421   2.695904   5.231859   9.142661
    31  H    8.879164   6.323990   4.006598   7.210043  10.918076
    32  H    8.855325   7.240927   3.990951   6.251308  10.892469
    33  H    8.747335   6.526188   2.811198   6.485250  10.080933
    34  H    7.803705   6.017692   1.900023   5.998640   7.182786
                   26         27         28         29         30
    26  H    0.000000
    27  H    4.714538   0.000000
    28  O    4.654828   5.018272   0.000000
    29  H    4.704740   6.964941   2.533019   0.000000
    30  O    7.745879   7.588905   7.383034   7.591389   0.000000
    31  H    8.760895   9.326315   8.933793   8.660080   2.049735
    32  H    8.747098   8.613037   9.177689   9.333271   2.050273
    33  H    7.285390   7.970269   8.132840   7.989778   2.077911
    34  H    3.381707   5.189042   5.221088   5.196387   4.492187
                   31         32         33         34
    31  H    0.000000
    32  H    1.788403   0.000000
    33  H    1.793377   1.793437   0.000000
    34  H    5.407920   5.395646   3.915844   0.000000
 Stoichiometry    CH11O14Si7V
 Framework group  C1[X(CH11O14Si7V)]
 Deg. of freedom    96
 Full point group                 C1
 Largest Abelian subgroup         C1      NOp   1
 Largest concise Abelian subgroup C1      NOp   1
                         Standard orientation:                         
 ---------------------------------------------------------------------
 Center     Atomic     Atomic              Coordinates (Angstroms)
 Number     Number      Type              X           Y           Z
 ---------------------------------------------------------------------
    1          6             0       -5.443284    0.865018    0.011647
    2         14             0        0.967035   -2.917302    0.007986
    3         14             0       -0.622609   -1.295724   -2.200650
    4         23             0       -2.693950   -0.109726   -0.010260
    5         14             0       -0.630086   -1.289916    2.199948
    6         14             0        3.224669   -0.750806    0.003320
    7         14             0        1.669777    0.963333   -2.139976
    8         14             0        0.968591    3.246000   -0.001100
    9         14             0        1.654057    0.966396    2.143603
   10          8             0        0.119742   -2.474395   -1.331986
   11          8             0       -2.056687   -0.914437   -1.447607
   12          8             0       -2.052434   -0.941713    1.408930
   13          8             0        0.149426   -2.469087    1.365137
   14          8             0        2.446576   -2.203311   -0.010267
   15          8             0        0.310414    0.042323   -2.268325
   16          8             0       -0.585271    3.751902   -0.000257
   17          8             0        0.281675    0.063261    2.270269
   18          8             0        1.314888    2.332633   -1.334048
   19          8             0        1.319423    2.339348    1.335461
   20          8             0        2.798147    0.088812    1.349731
   21          1             0        1.134097   -4.372499    0.009194
   22          1             0       -0.931691   -1.797912   -3.544016
   23          8             0       -2.223413    1.411693    0.004128
   24          1             0       -0.960894   -1.779067    3.542967
   25          1             0        4.669851   -0.991434    0.015233
   26          1             0        1.816481    4.443474   -0.004202
   27          1             0        2.152559    1.290314    3.484566
   28          8             0        2.824963    0.101267   -1.344212
   29          1             0        2.166174    1.292504   -3.480361
   30          8             0       -4.432446   -0.133594   -0.008525
   31          1             0       -6.073804    0.736801   -0.874417
   32          1             0       -6.048568    0.727287    0.913783
   33          1             0       -4.997671    1.865873    0.010645
   34          1             0       -1.266094    3.052919    0.001436
 ---------------------------------------------------------------------
 Rotational constants (GHZ):      0.2035736      0.1527974      0.1321008
 General basis read from cards:  (6D, 7F)
 ===================================================================================================================================
 Pseudopotential Parameters 
 ===================================================================================================================================
  Center     Atomic      Valence      Angular      Power                                                       Coordinates
  Number     Number     Electrons     Momentum     of R      Exponent        Coefficient                X           Y           Z
 ===================================================================================================================================
    1          6                                                                                  -10.286315  1.634648  0.022010
                                   No pseudopotential on this center.
    2         14                                                                                    1.827431 -5.512902  0.015092
                                   No pseudopotential on this center.
    3         14                                                                                   -1.176560 -2.448564 -4.158625
                                   No pseudopotential on this center.
    4         23           13                                                                      -5.090828 -0.207352 -0.019389
                                      D and up 
                                                     1      296.4487582      -10.00000000
                                                     2       53.5015052      -54.89098080
                                                     2       13.3204510       -9.70105860
                                      S - D
                                                     0       93.2193654        3.00000000
                                                     1       71.1029567       22.53456890
                                                     2       33.8766993      216.56340090
                                                     2        6.8691200      252.68225380
                                                     2        6.4804722     -176.26716540
                                      P - D
                                                     0       52.0953977        5.00000000
                                                     1       65.6778411        5.70035550
                                                     2       27.4703764      182.90542740
                                                     2        6.2352020      117.27562260
                                                     2        5.8139909      -78.58291340
    5         14                                                                                   -1.190689 -2.437589  4.157300
                                   No pseudopotential on this center.
    6         14                                                                                    6.093742 -1.418818  0.006273
                                   No pseudopotential on this center.
    7         14                                                                                    3.155422  1.820436 -4.043968
                                   No pseudopotential on this center.
    8         14                                                                                    1.830371  6.134050 -0.002079
                                   No pseudopotential on this center.
    9         14                                                                                    3.125714  1.826223  4.050822
                                   No pseudopotential on this center.
   10          8                                                                                    0.226279 -4.675929 -2.517090
                                   No pseudopotential on this center.
   11          8                                                                                   -3.886574 -1.728035 -2.735580
                                   No pseudopotential on this center.
   12          8                                                                                   -3.878539 -1.779579  2.662491
                                   No pseudopotential on this center.
   13          8                                                                                    0.282375 -4.665898  2.579736
                                   No pseudopotential on this center.
   14          8                                                                                    4.623359 -4.163654 -0.019401
                                   No pseudopotential on this center.
   15          8                                                                                    0.586598  0.079978 -4.286513
                                   No pseudopotential on this center.
   16          8                                                                                   -1.106002  7.090068 -0.000485
                                   No pseudopotential on this center.
   17          8                                                                                    0.532289  0.119546  4.290186
                                   No pseudopotential on this center.
   18          8                                                                                    2.484779  4.408037 -2.520986
                                   No pseudopotential on this center.
   19          8                                                                                    2.493349  4.420728  2.523656
                                   No pseudopotential on this center.
   20          8                                                                                    5.287732  0.167830  2.550621
                                   No pseudopotential on this center.
   21          1                                                                                    2.143133 -8.262826  0.017374
                                   No pseudopotential on this center.
   22          1                                                                                   -1.760640 -3.397560 -6.697219
                                   No pseudopotential on this center.
   23          8                                                                                   -4.201641  2.667713  0.007801
                                   No pseudopotential on this center.
   24          1                                                                                   -1.815826 -3.361950  6.695238
                                   No pseudopotential on this center.
   25          1                                                                                    8.824739 -1.873538  0.028786
                                   No pseudopotential on this center.
   26          1                                                                                    3.432651  8.396949 -0.007941
                                   No pseudopotential on this center.
   27          1                                                                                    4.067746  2.438341  6.584876
                                   No pseudopotential on this center.
   28          8                                                                                    5.338406  0.191366 -2.540192
                                   No pseudopotential on this center.
   29          1                                                                                    4.093476  2.442479 -6.576929
                                   No pseudopotential on this center.
   30          8                                                                                   -8.376108 -0.252456 -0.016110
                                   No pseudopotential on this center.
   31          1                                                                                  -11.477825  1.392351 -1.652409
                                   No pseudopotential on this center.
   32          1                                                                                  -11.430137  1.374374  1.726799
                                   No pseudopotential on this center.
   33          1                                                                                   -9.444230  3.525989  0.020116
                                   No pseudopotential on this center.
   34          1                                                                                   -2.392570  5.769180  0.002714
                                   No pseudopotential on this center.
 ===================================================================================================================================
 There are   404 symmetry adapted basis functions of A   symmetry.
 Integral buffers will be    131072 words long.
 Raffenetti 2 integral format.
 Two-electron integral symmetry is turned on.
   404 basis functions,   882 primitive gaussians,   404 cartesian basis functions
   120 alpha electrons      120 beta electrons
       nuclear repulsion energy      3967.0190210117 Hartrees.
 NAtoms=   34 NActive=   34 NUniq=   34 SFac= 7.50D-01 NAtFMM=   80 NAOKFM=F Big=F
 One-electron integrals computed using PRISM.
   1 Symmetry operations used in ECPInt.
 ECPInt:  NShTT=    7875 NPrTT=   60933 LenC2=    6747 LenP2D=   27291.
 LDataN:  DoStor=F MaxTD1= 4 Len=   56
 LDataN:  DoStor=T MaxTD1= 4 Len=   56
 NBasis=   404 RedAO= T  NBF=   404
 NBsUse=   404 1.00D-06 NBFU=   404
 Harris functional with IExCor=  402 diagonalized for initial guess.
 ExpMin= 1.80D-02 ExpMax= 1.61D+04 ExpMxC= 2.43D+03 IAcc=3 IRadAn=         5 AccDes= 0.00D+00
 HarFok:  IExCor= 402 AccDes= 0.00D+00 IRadAn=         5 IDoV=1
 ScaDFX=  1.000000  1.000000  1.000000  1.000000
 Initial guess orbital symmetries:
       Occupied  (A) (A) (A) (A) (A) (A) (A) (A) (A) (A) (A) (A)
                 (A) (A) (A) (A) (A) (A) (A) (A) (A) (A) (A) (A)
                 (A) (A) (A) (A) (A) (A) (A) (A) (A) (A) (A) (A)
                 (A) (A) (A) (A) (A) (A) (A) (A) (A) (A) (A) (A)
                 (A) (A) (A) (A) (A) (A) (A) (A) (A) (A) (A) (A)
                 (A) (A) (A) (A) (A) (A) (A) (A) (A) (A) (A) (A)
                 (A) (A) (A) (A) (A) (A) (A) (A) (A) (A) (A) (A)
                 (A) (A) (A) (A) (A) (A) (A) (A) (A) (A) (A) (A)
                 (A) (A) (A) (A) (A) (A) (A) (A) (A) (A) (A) (A)
                 (A) (A) (A) (A) (A) (A) (A) (A) (A) (A) (A) (A)
       Virtual   (A) (A) (A) (A) (A) (A) (A) (A) (A) (A) (A) (A)
                 (A) (A) (A) (A) (A) (A) (A) (A) (A) (A) (A) (A)
                 (A) (A) (A) (A) (A) (A) (A) (A) (A) (A) (A) (A)
                 (A) (A) (A) (A) (A) (A) (A) (A) (A) (A) (A) (A)
                 (A) (A) (A) (A) (A) (A) (A) (A) (A) (A) (A) (A)
                 (A) (A) (A) (A) (A) (A) (A) (A) (A) (A) (A) (A)
                 (A) (A) (A) (A) (A) (A) (A) (A) (A) (A) (A) (A)
                 (A) (A) (A) (A) (A) (A) (A) (A) (A) (A) (A) (A)
                 (A) (A) (A) (A) (A) (A) (A) (A) (A) (A) (A) (A)
                 (A) (A) (A) (A) (A) (A) (A) (A) (A) (A) (A) (A)
                 (A) (A) (A) (A) (A) (A) (A) (A) (A) (A) (A) (A)
                 (A) (A) (A) (A) (A) (A) (A) (A) (A) (A) (A) (A)
                 (A) (A) (A) (A) (A) (A) (A) (A) (A) (A) (A) (A)
                 (A) (A) (A) (A) (A) (A) (A) (A) (A) (A) (A) (A)
                 (A) (A) (A) (A) (A) (A) (A) (A) (A) (A) (A) (A)
                 (A) (A) (A) (A) (A) (A) (A) (A) (A) (A) (A) (A)
                 (A) (A) (A) (A) (A) (A) (A) (A) (A) (A) (A) (A)
                 (A) (A) (A) (A) (A) (A) (A) (A) (A) (A) (A) (A)
                 (A) (A) (A) (A) (A) (A) (A) (A) (A) (A) (A) (A)
                 (A) (A) (A) (A) (A) (A) (A) (A) (A) (A) (A) (A)
                 (A) (A) (A) (A) (A) (A) (A) (A) (A) (A) (A) (A)
                 (A) (A) (A) (A) (A) (A) (A) (A) (A) (A) (A) (A)
                 (A) (A) (A) (A) (A) (A) (A) (A) (A) (A) (A) (A)
                 (A) (A) (A) (A) (A) (A) (A) (A)
 The electronic state of the initial guess is 1-A.
 Gradient too large for Newton-Raphson -- use scaled steepest descent instead.
 Gradient too large for Newton-Raphson -- use scaled steepest descent instead.
 Gradient too large for Newton-Raphson -- use scaled steepest descent instead.
 Gradient too large for Newton-Raphson -- use scaled steepest descent instead.
 Gradient too large for Newton-Raphson -- use scaled steepest descent instead.
 Gradient too large for Newton-Raphson -- use scaled steepest descent instead.
 Gradient too large for Newton-Raphson -- use scaled steepest descent instead.
 Gradient too large for Newton-Raphson -- use scaled steepest descent instead.
 Gradient too large for Newton-Raphson -- use scaled steepest descent instead.
 Gradient too large for Newton-Raphson -- use scaled steepest descent instead.
 Gradient too large for Newton-Raphson -- use scaled steepest descent instead.
 Gradient too large for Newton-Raphson -- use scaled steepest descent instead.
 LinEq1:  Iter=  0 NonCon=   1 RMS=4.87D-05 Max=3.09D-03
 AX will form   1 AO Fock derivatives at one time.
 LinEq1:  Iter=  1 NonCon=   1 RMS=1.50D-04 Max=9.72D-03
 LinEq1:  Iter=  2 NonCon=   1 RMS=2.13D-05 Max=1.23D-03
 LinEq1:  Iter=  3 NonCon=   1 RMS=2.19D-06 Max=9.27D-05
 LinEq1:  Iter=  4 NonCon=   1 RMS=2.97D-06 Max=2.16D-04
 LinEq1:  Iter=  5 NonCon=   1 RMS=1.30D-06 Max=8.08D-05
 LinEq1:  Iter=  6 NonCon=   1 RMS=1.05D-06 Max=6.75D-05
 LinEq1:  Iter=  7 NonCon=   1 RMS=6.73D-07 Max=3.21D-05
 LinEq1:  Iter=  8 NonCon=   1 RMS=4.54D-07 Max=2.44D-05
 LinEq1:  Iter=  9 NonCon=   1 RMS=2.28D-07 Max=8.44D-06
 LinEq1:  Iter= 10 NonCon=   1 RMS=1.28D-07 Max=3.19D-06
 LinEq1:  Iter= 11 NonCon=   1 RMS=7.01D-08 Max=2.16D-06
 LinEq1:  Iter= 12 NonCon=   1 RMS=4.03D-08 Max=1.08D-06
 LinEq1:  Iter= 13 NonCon=   1 RMS=3.55D-08 Max=1.05D-06
 LinEq1:  Iter= 14 NonCon=   1 RMS=2.64D-08 Max=6.93D-07
 LinEq1:  Iter= 15 NonCon=   1 RMS=1.54D-08 Max=3.43D-07
 LinEq1:  Iter= 16 NonCon=   0 RMS=8.31D-09 Max=2.47D-07
 Linear equations converged to 2.611D-08 2.611D-07 after  16 iterations.
 LinEq1:  Iter=  0 NonCon=   1 RMS=3.52D-07 Max=1.80D-05
 LinEq1:  Iter=  1 NonCon=   1 RMS=5.62D-07 Max=3.28D-05
 LinEq1:  Iter=  2 NonCon=   1 RMS=9.18D-07 Max=4.61D-05
 LinEq1:  Iter=  3 NonCon=   1 RMS=4.16D-07 Max=1.36D-05
 LinEq1:  Iter=  4 NonCon=   1 RMS=2.31D-07 Max=1.40D-05
 LinEq1:  Iter=  5 NonCon=   1 RMS=1.07D-07 Max=5.33D-06
 LinEq1:  Iter=  6 NonCon=   1 RMS=9.45D-08 Max=5.90D-06
 LinEq1:  Iter=  7 NonCon=   1 RMS=7.13D-08 Max=2.42D-06
 LinEq1:  Iter=  8 NonCon=   1 RMS=4.69D-08 Max=2.01D-06
 LinEq1:  Iter=  9 NonCon=   1 RMS=2.48D-08 Max=7.44D-07
 LinEq1:  Iter= 10 NonCon=   1 RMS=1.54D-08 Max=4.01D-07
 LinEq1:  Iter= 11 NonCon=   1 RMS=1.27D-08 Max=3.77D-07
 LinEq1:  Iter= 12 NonCon=   1 RMS=1.05D-08 Max=2.58D-07
 LinEq1:  Iter= 13 NonCon=   1 RMS=5.10D-09 Max=1.39D-07
 LinEq1:  Iter= 14 NonCon=   1 RMS=2.49D-09 Max=5.54D-08
 LinEq1:  Iter= 15 NonCon=   1 RMS=1.48D-09 Max=4.81D-08
 LinEq1:  Iter= 16 NonCon=   1 RMS=8.38D-10 Max=3.19D-08
 LinEq1:  Iter= 17 NonCon=   0 RMS=3.88D-10 Max=1.20D-08
 Linear equations converged to 2.164D-09 2.164D-08 after  17 iterations.
 LinEq1:  Iter=  0 NonCon=   1 RMS=6.37D-09 Max=5.33D-08
 LinEq1:  Iter=  1 NonCon=   1 RMS=5.64D-09 Max=3.05D-07
 LinEq1:  Iter=  2 NonCon=   1 RMS=7.65D-09 Max=3.43D-07
 LinEq1:  Iter=  3 NonCon=   1 RMS=5.70D-09 Max=3.55D-07
 LinEq1:  Iter=  4 NonCon=   1 RMS=5.18D-09 Max=2.80D-07
 LinEq1:  Iter=  5 NonCon=   1 RMS=3.06D-09 Max=1.07D-07
 LinEq1:  Iter=  6 NonCon=   1 RMS=2.65D-09 Max=1.05D-07
 LinEq1:  Iter=  7 NonCon=   1 RMS=2.46D-09 Max=8.66D-08
 LinEq1:  Iter=  8 NonCon=   1 RMS=1.78D-09 Max=3.76D-08
 LinEq1:  Iter=  9 NonCon=   1 RMS=1.08D-09 Max=2.66D-08
 LinEq1:  Iter= 10 NonCon=   1 RMS=6.74D-10 Max=2.23D-08
 LinEq1:  Iter= 11 NonCon=   1 RMS=6.49D-10 Max=1.96D-08
 LinEq1:  Iter= 12 NonCon=   1 RMS=2.98D-10 Max=5.89D-09
 LinEq1:  Iter= 13 NonCon=   1 RMS=2.09D-10 Max=5.34D-09
 LinEq1:  Iter= 14 NonCon=   1 RMS=1.07D-10 Max=3.14D-09
 LinEq1:  Iter= 15 NonCon=   0 RMS=4.21D-11 Max=1.16D-09
 Linear equations converged to 3.107D-10 3.107D-09 after  15 iterations.
 LinEq1:  Iter=  0 NonCon=   1 RMS=8.53D-10 Max=3.12D-09
 LinEq1:  Iter=  1 NonCon=   1 RMS=1.47D-10 Max=6.01D-09
 LinEq1:  Iter=  2 NonCon=   1 RMS=2.66D-10 Max=1.07D-08
 LinEq1:  Iter=  3 NonCon=   1 RMS=3.29D-10 Max=1.10D-08
 LinEq1:  Iter=  4 NonCon=   1 RMS=2.16D-10 Max=8.56D-09
 LinEq1:  Iter=  5 NonCon=   1 RMS=1.69D-10 Max=5.13D-09
 LinEq1:  Iter=  6 NonCon=   1 RMS=8.36D-11 Max=3.65D-09
 LinEq1:  Iter=  7 NonCon=   1 RMS=7.20D-11 Max=2.85D-09
 LinEq1:  Iter=  8 NonCon=   1 RMS=6.37D-11 Max=2.92D-09
 LinEq1:  Iter=  9 NonCon=   1 RMS=4.34D-11 Max=1.29D-09
 LinEq1:  Iter= 10 NonCon=   1 RMS=4.24D-11 Max=1.80D-09
 LinEq1:  Iter= 11 NonCon=   1 RMS=3.68D-11 Max=8.13D-10
 LinEq1:  Iter= 12 NonCon=   0 RMS=2.13D-11 Max=4.37D-10
 Linear equations converged to 4.476D-11 4.476D-10 after  12 iterations.
 SCF Done:  E(RB+HF-LYP) =  -3196.86435643     a.u. after   17 cycles
            Convg  =    0.3469D-06                   105 Fock formations.
              S**2 =  0.0000                  -V/T =  2.0182

 **********************************************************************

            Population analysis using the SCF density.

 **********************************************************************

 Orbital symmetries:
       Occupied  (A) (A) (A) (A) (A) (A) (A) (A) (A) (A) (A) (A)
                 (A) (A) (A) (A) (A) (A) (A) (A) (A) (A) (A) (A)
                 (A) (A) (A) (A) (A) (A) (A) (A) (A) (A) (A) (A)
                 (A) (A) (A) (A) (A) (A) (A) (A) (A) (A) (A) (A)
                 (A) (A) (A) (A) (A) (A) (A) (A) (A) (A) (A) (A)
                 (A) (A) (A) (A) (A) (A) (A) (A) (A) (A) (A) (A)
                 (A) (A) (A) (A) (A) (A) (A) (A) (A) (A) (A) (A)
                 (A) (A) (A) (A) (A) (A) (A) (A) (A) (A) (A) (A)
                 (A) (A) (A) (A) (A) (A) (A) (A) (A) (A) (A) (A)
                 (A) (A) (A) (A) (A) (A) (A) (A) (A) (A) (A) (A)
       Virtual   (A) (A) (A) (A) (A) (A) (A) (A) (A) (A) (A) (A)
                 (A) (A) (A) (A) (A) (A) (A) (A) (A) (A) (A) (A)
                 (A) (A) (A) (A) (A) (A) (A) (A) (A) (A) (A) (A)
                 (A) (A) (A) (A) (A) (A) (A) (A) (A) (A) (A) (A)
                 (A) (A) (A) (A) (A) (A) (A) (A) (A) (A) (A) (A)
                 (A) (A) (A) (A) (A) (A) (A) (A) (A) (A) (A) (A)
                 (A) (A) (A) (A) (A) (A) (A) (A) (A) (A) (A) (A)
                 (A) (A) (A) (A) (A) (A) (A) (A) (A) (A) (A) (A)
                 (A) (A) (A) (A) (A) (A) (A) (A) (A) (A) (A) (A)
                 (A) (A) (A) (A) (A) (A) (A) (A) (A) (A) (A) (A)
                 (A) (A) (A) (A) (A) (A) (A) (A) (A) (A) (A) (A)
                 (A) (A) (A) (A) (A) (A) (A) (A) (A) (A) (A) (A)
                 (A) (A) (A) (A) (A) (A) (A) (A) (A) (A) (A) (A)
                 (A) (A) (A) (A) (A) (A) (A) (A) (A) (A) (A) (A)
                 (A) (A) (A) (A) (A) (A) (A) (A) (A) (A) (A) (A)
                 (A) (A) (A) (A) (A) (A) (A) (A) (A) (A) (A) (A)
                 (A) (A) (A) (A) (A) (A) (A) (A) (A) (A) (A) (A)
                 (A) (A) (A) (A) (A) (A) (A) (A) (A) (A) (A) (A)
                 (A) (A) (A) (A) (A) (A) (A) (A) (A) (A) (A) (A)
                 (A) (A) (A) (A) (A) (A) (A) (A) (A) (A) (A) (A)
                 (A) (A) (A) (A) (A) (A) (A) (A) (A) (A) (A) (A)
                 (A) (A) (A) (A) (A) (A) (A) (A) (A) (A) (A) (A)
                 (A) (A) (A) (A) (A) (A) (A) (A) (A) (A) (A) (A)
                 (A) (A) (A) (A) (A) (A) (A) (A)
 The electronic state is 1-A.
 Alpha  occ. eigenvalues --  -66.22345 -66.22343 -66.22158 -66.21779 -66.21732
 Alpha  occ. eigenvalues --  -66.21725 -66.19965 -19.20559 -19.20033 -19.18062
 Alpha  occ. eigenvalues --  -19.18015 -19.16812 -19.16808 -19.16612 -19.16601
 Alpha  occ. eigenvalues --  -19.16450 -19.16243 -19.16237 -19.15487 -19.15487
 Alpha  occ. eigenvalues --  -19.14021 -10.26437  -5.35865  -5.35859  -5.35685
 Alpha  occ. eigenvalues --   -5.35318  -5.35227  -5.35220  -5.33568  -3.71920
 Alpha  occ. eigenvalues --   -3.71915  -3.71900  -3.71894  -3.71743  -3.71723
 Alpha  occ. eigenvalues --   -3.71618  -3.71613  -3.71432  -3.71371  -3.71358
 Alpha  occ. eigenvalues --   -3.71303  -3.71296  -3.71255  -3.71248  -3.71067
 Alpha  occ. eigenvalues --   -3.70977  -3.70971  -3.69656  -3.69544  -3.69332
 Alpha  occ. eigenvalues --   -2.77304  -1.81638  -1.80896  -1.80755  -1.04358
 Alpha  occ. eigenvalues --   -1.02979  -1.02813  -1.02614  -1.01684  -1.00609
 Alpha  occ. eigenvalues --   -1.00543  -0.98788  -0.98773  -0.98446  -0.98045
 Alpha  occ. eigenvalues --   -0.97997  -0.97529  -0.93622  -0.70504  -0.64691
 Alpha  occ. eigenvalues --   -0.61301  -0.60965  -0.58905  -0.56438  -0.56374
 Alpha  occ. eigenvalues --   -0.51459  -0.51369  -0.50770  -0.50570  -0.50400
 Alpha  occ. eigenvalues --   -0.49438  -0.48948  -0.48340  -0.48180  -0.47049
 Alpha  occ. eigenvalues --   -0.44803  -0.44506  -0.43951  -0.43083  -0.42314
 Alpha  occ. eigenvalues --   -0.42025  -0.41992  -0.41324  -0.41035  -0.40436
 Alpha  occ. eigenvalues --   -0.40332  -0.38668  -0.38342  -0.38233  -0.37686
 Alpha  occ. eigenvalues --   -0.37276  -0.36736  -0.36371  -0.36178  -0.36124
 Alpha  occ. eigenvalues --   -0.35987  -0.35292  -0.34838  -0.34771  -0.34721
 Alpha  occ. eigenvalues --   -0.34185  -0.34006  -0.33885  -0.33772  -0.33586
 Alpha  occ. eigenvalues --   -0.33399  -0.32511  -0.32443  -0.31876  -0.30662
 Alpha virt. eigenvalues --   -0.11461  -0.11151  -0.07935  -0.06759  -0.04328
 Alpha virt. eigenvalues --   -0.00460   0.01385   0.01606   0.01769   0.04601
 Alpha virt. eigenvalues --    0.04814   0.04981   0.05284   0.05998   0.06450
 Alpha virt. eigenvalues --    0.07459   0.07634   0.08370   0.08857   0.08989
 Alpha virt. eigenvalues --    0.09359   0.10367   0.10774   0.11215   0.11776
 Alpha virt. eigenvalues --    0.12218   0.12967   0.13073   0.13776   0.14671
 Alpha virt. eigenvalues --    0.14683   0.14786   0.15202   0.15511   0.16312
 Alpha virt. eigenvalues --    0.16407   0.17779   0.18095   0.18148   0.18592
 Alpha virt. eigenvalues --    0.18857   0.19103   0.19617   0.20039   0.20233
 Alpha virt. eigenvalues --    0.21159   0.22678   0.22881   0.24191   0.24530
 Alpha virt. eigenvalues --    0.26341   0.27048   0.28043   0.29967   0.30861
 Alpha virt. eigenvalues --    0.31892   0.32696   0.33502   0.34289   0.34942
 Alpha virt. eigenvalues --    0.35100   0.35420   0.35600   0.37241   0.38799
 Alpha virt. eigenvalues --    0.39489   0.39781   0.41253   0.41806   0.42017
 Alpha virt. eigenvalues --    0.42930   0.44750   0.45253   0.48173   0.48929
 Alpha virt. eigenvalues --    0.49348   0.50068   0.53080   0.54456   0.55660
 Alpha virt. eigenvalues --    0.56407   0.57782   0.58348   0.58778   0.59429
 Alpha virt. eigenvalues --    0.60342   0.60668   0.62044   0.62095   0.62820
 Alpha virt. eigenvalues --    0.64145   0.65268   0.65474   0.66203   0.68431
 Alpha virt. eigenvalues --    0.69265   0.72634   0.73243   0.73480   0.74230
 Alpha virt. eigenvalues --    0.75803   0.76191   0.79212   0.82879   0.83404
 Alpha virt. eigenvalues --    0.84371   0.90469   0.91055   0.91676   0.92075
 Alpha virt. eigenvalues --    0.92702   0.94301   0.95515   0.96603   0.96859
 Alpha virt. eigenvalues --    0.97974   0.99605   1.00813   1.01334   1.01395
 Alpha virt. eigenvalues --    1.02440   1.02565   1.02803   1.03921   1.04704
 Alpha virt. eigenvalues --    1.04962   1.05737   1.05878   1.06536   1.07049
 Alpha virt. eigenvalues --    1.07774   1.08063   1.08651   1.08828   1.09883
 Alpha virt. eigenvalues --    1.10360   1.10837   1.11432   1.11941   1.12204
 Alpha virt. eigenvalues --    1.13825   1.14242   1.14445   1.15405   1.16037
 Alpha virt. eigenvalues --    1.16625   1.17272   1.17513   1.17736   1.18074
 Alpha virt. eigenvalues --    1.18197   1.19200   1.19601   1.20480   1.20632
 Alpha virt. eigenvalues --    1.21165   1.21758   1.22107   1.22308   1.23104
 Alpha virt. eigenvalues --    1.23989   1.24368   1.26047   1.27414   1.28710
 Alpha virt. eigenvalues --    1.31908   1.33902   1.37932   1.40811   1.43409
 Alpha virt. eigenvalues --    1.43973   1.44567   1.46822   1.47999   1.49117
 Alpha virt. eigenvalues --    1.49833   1.51281   1.51869   1.52981   1.53766
 Alpha virt. eigenvalues --    1.53974   1.56509   1.58452   1.64799   1.65103
 Alpha virt. eigenvalues --    1.65532   1.67702   1.72161   1.73288   1.73637
 Alpha virt. eigenvalues --    1.74469   1.74846   1.74955   1.75016   1.75262
 Alpha virt. eigenvalues --    1.75817   1.76077   1.76375   1.76574   1.76819
 Alpha virt. eigenvalues --    1.77195   1.77556   1.78862   1.78910   1.79576
 Alpha virt. eigenvalues --    1.80636   1.80736   1.80967   1.82100   1.83549
 Alpha virt. eigenvalues --    1.84401   1.85497   1.85883   1.90674   1.91425
 Alpha virt. eigenvalues --    1.93297   1.93720   1.94788   1.95200   1.96374
 Alpha virt. eigenvalues --    1.97699   1.98204   2.02780   2.03587   2.05096
 Alpha virt. eigenvalues --    2.05541   2.06175   2.09933   2.12610   2.16147
 Alpha virt. eigenvalues --    2.16392   2.17436   2.19236   2.20481   2.26326
 Alpha virt. eigenvalues --    2.31699   2.32978   2.33192   2.35740   2.39388
 Alpha virt. eigenvalues --    2.43051   2.43539   2.45352   2.45834   2.48700
 Alpha virt. eigenvalues --    2.49621   2.51626   2.53995   2.59967   2.63111
 Alpha virt. eigenvalues --    2.65138   2.70104   2.73034   2.73629   2.74858
 Alpha virt. eigenvalues --    2.77998   2.80299   2.82003   2.82920   2.84831
 Alpha virt. eigenvalues --    2.92933   2.94811   2.95922   2.96305   2.97851
 Alpha virt. eigenvalues --    3.00119   3.01531   3.48473   3.65961   3.67471
 Alpha virt. eigenvalues --    3.70575   3.71011   3.71931   3.74685   3.79561
 Alpha virt. eigenvalues --    3.81574   3.89808   3.93258   4.00506   4.01635
 Alpha virt. eigenvalues --    4.12098   4.21983   6.85741  32.28604
          Condensed to atoms (all electrons):
              1          2          3          4          5          6
     1  C    4.881811   0.000001  -0.000059  -0.014532  -0.000060   0.000000
     2  Si   0.000001  11.524572   0.008564  -0.000355   0.008733   0.006655
     3  Si  -0.000059   0.008564  11.504417  -0.002163   0.002026   0.002098
     4  V   -0.014532  -0.000355  -0.002163  10.959188  -0.002547  -0.001581
     5  Si  -0.000060   0.008733   0.002026  -0.002547  11.504560   0.001929
     6  Si   0.000000   0.006655   0.002098  -0.001581   0.001929  11.537154
     7  Si   0.000000   0.000660   0.003108   0.002049  -0.000993   0.000371
     8  Si   0.000003  -0.000157   0.000451   0.001506   0.000430  -0.000331
     9  Si   0.000000   0.000749  -0.001014   0.002018   0.003098   0.000202
    10  O    0.000000   0.333743   0.351693   0.002612   0.004311   0.002805
    11  O   -0.000139   0.001203   0.301022   0.143901   0.000006  -0.000133
    12  O   -0.000150   0.001590   0.000000   0.143884   0.300080  -0.000141
    13  O    0.000000   0.333996   0.003826   0.001609   0.352729   0.002979
    14  O    0.000000   0.351853   0.000982  -0.000451   0.000677   0.345682
    15  O    0.000000   0.003619   0.345079   0.011859  -0.000466   0.003160
    16  O    0.000000   0.000000   0.000056   0.007263   0.000059   0.000039
    17  O    0.000000   0.003308  -0.000430   0.012419   0.344514   0.002857
    18  O    0.000000  -0.000141  -0.001328   0.002261  -0.000103  -0.000639
    19  O    0.000000  -0.000143  -0.000096   0.002104  -0.001361  -0.000490
    20  O    0.000000   0.002836  -0.000492  -0.000067   0.003362   0.339682
    21  H    0.000000   0.376568  -0.000297   0.001209  -0.000267  -0.000643
    22  H    0.000000  -0.000834   0.370679   0.005878  -0.000033  -0.000059
    23  O   -0.004414  -0.000152   0.000127   0.231764   0.000070  -0.000022
    24  H    0.000000  -0.000815  -0.000035   0.005906   0.370712  -0.000061
    25  H    0.000000  -0.000523  -0.000046   0.000027  -0.000045   0.377888
    26  H    0.000000   0.000000  -0.000004   0.000364  -0.000004  -0.000128
    27  H    0.000000  -0.000042  -0.000003   0.000893  -0.001680  -0.001125
    28  O    0.000000   0.002352   0.003115  -0.000099  -0.000449   0.340622
    29  H    0.000000  -0.000043  -0.001662   0.000891  -0.000002  -0.001068
    30  O    0.217669  -0.000028   0.000100   0.146021   0.000054   0.000000
    31  H    0.377535   0.000000   0.000036  -0.000508  -0.000002   0.000000
    32  H    0.377506   0.000000  -0.000002  -0.000636   0.000040   0.000000
    33  H    0.369099   0.000000  -0.000030   0.000060  -0.000034   0.000000
    34  H   -0.000015   0.000003  -0.000102   0.000703  -0.000103   0.000009
              7          8          9         10         11         12
     1  C    0.000000   0.000003   0.000000   0.000000  -0.000139  -0.000150
     2  Si   0.000660  -0.000157   0.000749   0.333743   0.001203   0.001590
     3  Si   0.003108   0.000451  -0.001014   0.351693   0.301022   0.000000
     4  V    0.002049   0.001506   0.002018   0.002612   0.143901   0.143884
     5  Si  -0.000993   0.000430   0.003098   0.004311   0.000006   0.300080
     6  Si   0.000371  -0.000331   0.000202   0.002805  -0.000133  -0.000141
     7  Si  11.545756  -0.001228   0.009287   0.001710  -0.000136  -0.000087
     8  Si  -0.001228  11.570634  -0.001097  -0.000004  -0.000099  -0.000098
     9  Si   0.009287  -0.001097  11.545440  -0.000408  -0.000087  -0.000126
    10  O    0.001710  -0.000004  -0.000408   8.046138  -0.014828  -0.000083
    11  O   -0.000136  -0.000099  -0.000087  -0.014828   8.324923  -0.000172
    12  O   -0.000087  -0.000098  -0.000126  -0.000083  -0.000172   8.326011
    13  O   -0.000398  -0.000004   0.001896  -0.015629  -0.000054  -0.014789
    14  O    0.000328  -0.000044   0.000304  -0.015670   0.000000   0.000000
    15  O    0.331507   0.001340  -0.000449  -0.015503  -0.014316  -0.000007
    16  O   -0.002278   0.420885  -0.002251   0.000000   0.000001   0.000001
    17  O   -0.000486   0.001470   0.331379  -0.000016  -0.000006  -0.014302
    18  O    0.372514   0.320246   0.005575  -0.000001   0.000000   0.000000
    19  O    0.005393   0.320424   0.372729   0.000000   0.000000   0.000001
    20  O    0.004944  -0.000505   0.344125  -0.000003   0.000000  -0.000001
    21  H   -0.000058   0.000000  -0.000058  -0.024067  -0.000005  -0.000006
    22  H   -0.001961   0.000004  -0.000001  -0.023659  -0.024615   0.000002
    23  O    0.000301   0.003451   0.000325   0.000001   0.003991   0.003991
    24  H   -0.000001   0.000004  -0.002005  -0.000004   0.000002  -0.024532
    25  H   -0.000681  -0.000097  -0.000746  -0.000006   0.000000   0.000000
    26  H   -0.001057   0.383540  -0.001027   0.000000   0.000000   0.000000
    27  H    0.000084  -0.001563   0.378581   0.000000   0.000000  -0.000003
    28  O    0.344221  -0.000352   0.004608  -0.000046  -0.000001   0.000000
    29  H    0.378639  -0.001570   0.000082  -0.000004  -0.000003   0.000000
    30  O   -0.000005  -0.000001  -0.000005   0.000000  -0.000246  -0.000204
    31  H    0.000000   0.000000   0.000000   0.000000   0.000012   0.000004
    32  H    0.000000   0.000000   0.000000   0.000000   0.000004   0.000012
    33  H    0.000000  -0.000008   0.000000   0.000000  -0.000046  -0.000047
    34  H   -0.000267  -0.016767  -0.000270   0.000000  -0.000065  -0.000062
             13         14         15         16         17         18
     1  C    0.000000   0.000000   0.000000   0.000000   0.000000   0.000000
     2  Si   0.333996   0.351853   0.003619   0.000000   0.003308  -0.000141
     3  Si   0.003826   0.000982   0.345079   0.000056  -0.000430  -0.001328
     4  V    0.001609  -0.000451   0.011859   0.007263   0.012419   0.002261
     5  Si   0.352729   0.000677  -0.000466   0.000059   0.344514  -0.000103
     6  Si   0.002979   0.345682   0.003160   0.000039   0.002857  -0.000639
     7  Si  -0.000398   0.000328   0.331507  -0.002278  -0.000486   0.372514
     8  Si  -0.000004  -0.000044   0.001340   0.420885   0.001470   0.320246
     9  Si   0.001896   0.000304  -0.000449  -0.002251   0.331379   0.005575
    10  O   -0.015629  -0.015670  -0.015503   0.000000  -0.000016  -0.000001
    11  O   -0.000054   0.000000  -0.014316   0.000001  -0.000006   0.000000
    12  O   -0.014789   0.000000  -0.000007   0.000001  -0.014302   0.000000
    13  O    8.045789  -0.015597  -0.000015   0.000000  -0.015539   0.000000
    14  O   -0.015597   8.042493  -0.000049   0.000000  -0.000037   0.000000
    15  O   -0.000015  -0.000049   8.038562  -0.000001   0.000000  -0.015419
    16  O    0.000000   0.000000  -0.000001   8.130916  -0.000001  -0.015096
    17  O   -0.015539  -0.000037   0.000000  -0.000001   8.041436  -0.000020
    18  O    0.000000   0.000000  -0.015419  -0.015096  -0.000020   8.025396
    19  O   -0.000001   0.000000  -0.000019  -0.015105  -0.015398  -0.017947
    20  O   -0.000056  -0.015797  -0.000018   0.000000  -0.016555  -0.000051
    21  H   -0.024108  -0.024493  -0.000004   0.000000  -0.000004   0.000000
    22  H   -0.000004  -0.000006  -0.022674   0.000000   0.000000  -0.000002
    23  O    0.000001   0.000000  -0.000182  -0.010542  -0.000189  -0.000102
    24  H   -0.023674  -0.000006   0.000000   0.000000  -0.022745   0.000000
    25  H   -0.000006  -0.024743  -0.000004   0.000000  -0.000004  -0.000007
    26  H    0.000000   0.000000  -0.000002  -0.024740  -0.000002  -0.022867
    27  H   -0.000005  -0.000006   0.000000  -0.000003  -0.024182  -0.000004
    28  O   -0.000002  -0.015743  -0.016534   0.000000  -0.000015  -0.014476
    29  H    0.000000  -0.000006  -0.024111  -0.000003   0.000000  -0.024663
    30  O    0.000000   0.000000   0.000000   0.000000   0.000000   0.000000
    31  H    0.000000   0.000000   0.000000   0.000000   0.000000   0.000000
    32  H    0.000000   0.000000   0.000000   0.000000   0.000000   0.000000
    33  H    0.000000   0.000000   0.000000  -0.000008   0.000000   0.000000
    34  H    0.000000   0.000000  -0.000057   0.224490  -0.000063  -0.000009
             19         20         21         22         23         24
     1  C    0.000000   0.000000   0.000000   0.000000  -0.004414   0.000000
     2  Si  -0.000143   0.002836   0.376568  -0.000834  -0.000152  -0.000815
     3  Si  -0.000096  -0.000492  -0.000297   0.370679   0.000127  -0.000035
     4  V    0.002104  -0.000067   0.001209   0.005878   0.231764   0.005906
     5  Si  -0.001361   0.003362  -0.000267  -0.000033   0.000070   0.370712
     6  Si  -0.000490   0.339682  -0.000643  -0.000059  -0.000022  -0.000061
     7  Si   0.005393   0.004944  -0.000058  -0.001961   0.000301  -0.000001
     8  Si   0.320424  -0.000505   0.000000   0.000004   0.003451   0.000004
     9  Si   0.372729   0.344125  -0.000058  -0.000001   0.000325  -0.002005
    10  O    0.000000  -0.000003  -0.024067  -0.023659   0.000001  -0.000004
    11  O    0.000000   0.000000  -0.000005  -0.024615   0.003991   0.000002
    12  O    0.000001  -0.000001  -0.000006   0.000002   0.003991  -0.024532
    13  O   -0.000001  -0.000056  -0.024108  -0.000004   0.000001  -0.023674
    14  O    0.000000  -0.015797  -0.024493  -0.000006   0.000000  -0.000006
    15  O   -0.000019  -0.000018  -0.000004  -0.022674  -0.000182   0.000000
    16  O   -0.015105   0.000000   0.000000   0.000000  -0.010542   0.000000
    17  O   -0.015398  -0.016555  -0.000004   0.000000  -0.000189  -0.022745
    18  O   -0.017947  -0.000051   0.000000  -0.000002  -0.000102   0.000000
    19  O    8.025172  -0.014538   0.000000   0.000000  -0.000100  -0.000002
    20  O   -0.014538   8.052583  -0.000006   0.000000   0.000000  -0.000004
    21  H    0.000000  -0.000006   0.775307   0.000001   0.000000   0.000001
    22  H    0.000000   0.000000   0.000001   0.784467   0.000007   0.000000
    23  O   -0.000100   0.000000   0.000000   0.000007   8.224446   0.000008
    24  H   -0.000002  -0.000004   0.000001   0.000000   0.000008   0.784406
    25  H   -0.000007  -0.024032  -0.000001   0.000000   0.000000   0.000000
    26  H   -0.022935  -0.000013   0.000000   0.000000  -0.000002   0.000000
    27  H   -0.024622  -0.024257   0.000000   0.000000   0.000000   0.000024
    28  O   -0.000049  -0.016345  -0.000006  -0.000004   0.000000   0.000000
[...]
          Condensed to atoms (all electrons):
              1          2          3          4          5          6
     1  C    4.881811   0.000001  -0.000059  -0.014532  -0.000060   0.000000
     2  Si   0.000001  11.524572   0.008564  -0.000355   0.008733   0.006655
     3  Si  -0.000059   0.008564  11.504417  -0.002163   0.002026   0.002098
     4  V   -0.014532  -0.000355  -0.002163  10.959188  -0.002547  -0.001581
     5  Si  -0.000060   0.008733   0.002026  -0.002547  11.504560   0.001929
     6  Si   0.000000   0.006655   0.002098  -0.001581   0.001929  11.537154
     7  Si   0.000000   0.000660   0.003108   0.002049  -0.000993   0.000371
     8  Si   0.000003  -0.000157   0.000451   0.001506   0.000430  -0.000331
     9  Si   0.000000   0.000749  -0.001014   0.002018   0.003098   0.000202
    10  O    0.000000   0.333743   0.351693   0.002612   0.004311   0.002805
    11  O   -0.000139   0.001203   0.301022   0.143901   0.000006  -0.000133
    12  O   -0.000150   0.001590   0.000000   0.143884   0.300080  -0.000141
    13  O    0.000000   0.333996   0.003826   0.001609   0.352729   0.002979
    14  O    0.000000   0.351853   0.000982  -0.000451   0.000677   0.345682
    15  O    0.000000   0.003619   0.345079   0.011859  -0.000466   0.003160
    16  O    0.000000   0.000000   0.000056   0.007263   0.000059   0.000039
    17  O    0.000000   0.003308  -0.000430   0.012419   0.344514   0.002857
    18  O    0.000000  -0.000141  -0.001328   0.002261  -0.000103  -0.000639
    19  O    0.000000  -0.000143  -0.000096   0.002104  -0.001361  -0.000490
    20  O    0.000000   0.002836  -0.000492  -0.000067   0.003362   0.339682
    21  H    0.000000   0.376568  -0.000297   0.001209  -0.000267  -0.000643
    22  H    0.000000  -0.000834   0.370679   0.005878  -0.000033  -0.000059
    23  O   -0.004414  -0.000152   0.000127   0.231764   0.000070  -0.000022
    24  H    0.000000  -0.000815  -0.000035   0.005906   0.370712  -0.000061
    25  H    0.000000  -0.000523  -0.000046   0.000027  -0.000045   0.377888
    26  H    0.000000   0.000000  -0.000004   0.000364  -0.000004  -0.000128
    27  H    0.000000  -0.000042  -0.000003   0.000893  -0.001680  -0.001125
    28  O    0.000000   0.002352   0.003115  -0.000099  -0.000449   0.340622
    29  H    0.000000  -0.000043  -0.001662   0.000891  -0.000002  -0.001068
    30  O    0.217669  -0.000028   0.000100   0.146021   0.000054   0.000000
    31  H    0.377535   0.000000   0.000036  -0.000508  -0.000002   0.000000
    32  H    0.377506   0.000000  -0.000002  -0.000636   0.000040   0.000000
    33  H    0.369099   0.000000  -0.000030   0.000060  -0.000034   0.000000
    34  H   -0.000015   0.000003  -0.000102   0.000703  -0.000103   0.000009
              7          8          9         10         11         12
     1  C    0.000000   0.000003   0.000000   0.000000  -0.000139  -0.000150
     2  Si   0.000660  -0.000157   0.000749   0.333743   0.001203   0.001590
     3  Si   0.003108   0.000451  -0.001014   0.351693   0.301022   0.000000
     4  V    0.002049   0.001506   0.002018   0.002612   0.143901   0.143884
     5  Si  -0.000993   0.000430   0.003098   0.004311   0.000006   0.300080
     6  Si   0.000371  -0.000331   0.000202   0.002805  -0.000133  -0.000141
     7  Si  11.545756  -0.001228   0.009287   0.001710  -0.000136  -0.000087
     8  Si  -0.001228  11.570634  -0.001097  -0.000004  -0.000099  -0.000098
     9  Si   0.009287  -0.001097  11.545440  -0.000408  -0.000087  -0.000126
    10  O    0.001710  -0.000004  -0.000408   8.046138  -0.014828  -0.000083
    11  O   -0.000136  -0.000099  -0.000087  -0.014828   8.324923  -0.000172
    12  O   -0.000087  -0.000098  -0.000126  -0.000083  -0.000172   8.326011
    13  O   -0.000398  -0.000004   0.001896  -0.015629  -0.000054  -0.014789
    14  O    0.000328  -0.000044   0.000304  -0.015670   0.000000   0.000000
    15  O    0.331507   0.001340  -0.000449  -0.015503  -0.014316  -0.000007
    16  O   -0.002278   0.420885  -0.002251   0.000000   0.000001   0.000001
    17  O   -0.000486   0.001470   0.331379  -0.000016  -0.000006  -0.014302
    18  O    0.372514   0.320246   0.005575  -0.000001   0.000000   0.000000
    19  O    0.005393   0.320424   0.372729   0.000000   0.000000   0.000001
    20  O    0.004944  -0.000505   0.344125  -0.000003   0.000000  -0.000001
    21  H   -0.000058   0.000000  -0.000058  -0.024067  -0.000005  -0.000006
    22  H   -0.001961   0.000004  -0.000001  -0.023659  -0.024615   0.000002
    23  O    0.000301   0.003451   0.000325   0.000001   0.003991   0.003991
    24  H   -0.000001   0.000004  -0.002005  -0.000004   0.000002  -0.024532
    25  H   -0.000681  -0.000097  -0.000746  -0.000006   0.000000   0.000000
    26  H   -0.001057   0.383540  -0.001027   0.000000   0.000000   0.000000
    27  H    0.000084  -0.001563   0.378581   0.000000   0.000000  -0.000003
    28  O    0.344221  -0.000352   0.004608  -0.000046  -0.000001   0.000000
    29  H    0.378639  -0.001570   0.000082  -0.000004  -0.000003   0.000000
    30  O   -0.000005  -0.000001  -0.000005   0.000000  -0.000246  -0.000204
    31  H    0.000000   0.000000   0.000000   0.000000   0.000012   0.000004
    32  H    0.000000   0.000000   0.000000   0.000000   0.000004   0.000012
    33  H    0.000000  -0.000008   0.000000   0.000000  -0.000046  -0.000047
    34  H   -0.000267  -0.016767  -0.000270   0.000000  -0.000065  -0.000062
             13         14         15         16         17         18
     1  C    0.000000   0.000000   0.000000   0.000000   0.000000   0.000000
     2  Si   0.333996   0.351853   0.003619   0.000000   0.003308  -0.000141
     3  Si   0.003826   0.000982   0.345079   0.000056  -0.000430  -0.001328
     4  V    0.001609  -0.000451   0.011859   0.007263   0.012419   0.002261
     5  Si   0.352729   0.000677  -0.000466   0.000059   0.344514  -0.000103
     6  Si   0.002979   0.345682   0.003160   0.000039   0.002857  -0.000639
     7  Si  -0.000398   0.000328   0.331507  -0.002278  -0.000486   0.372514
     8  Si  -0.000004  -0.000044   0.001340   0.420885   0.001470   0.320246
     9  Si   0.001896   0.000304  -0.000449  -0.002251   0.331379   0.005575
    10  O   -0.015629  -0.015670  -0.015503   0.000000  -0.000016  -0.000001
    11  O   -0.000054   0.000000  -0.014316   0.000001  -0.000006   0.000000
    12  O   -0.014789   0.000000  -0.000007   0.000001  -0.014302   0.000000
    13  O    8.045789  -0.015597  -0.000015   0.000000  -0.015539   0.000000
    14  O   -0.015597   8.042493  -0.000049   0.000000  -0.000037   0.000000
    15  O   -0.000015  -0.000049   8.038562  -0.000001   0.000000  -0.015419
    16  O    0.000000   0.000000  -0.000001   8.130916  -0.000001  -0.015096
    17  O   -0.015539  -0.000037   0.000000  -0.000001   8.041436  -0.000020
    18  O    0.000000   0.000000  -0.015419  -0.015096  -0.000020   8.025396
    19  O   -0.000001   0.000000  -0.000019  -0.015105  -0.015398  -0.017947
    20  O   -0.000056  -0.015797  -0.000018   0.000000  -0.016555  -0.000051
    21  H   -0.024108  -0.024493  -0.000004   0.000000  -0.000004   0.000000
    22  H   -0.000004  -0.000006  -0.022674   0.000000   0.000000  -0.000002
    23  O    0.000001   0.000000  -0.000182  -0.010542  -0.000189  -0.000102
    24  H   -0.023674  -0.000006   0.000000   0.000000  -0.022745   0.000000
    25  H   -0.000006  -0.024743  -0.000004   0.000000  -0.000004  -0.000007
    26  H    0.000000   0.000000  -0.000002  -0.024740  -0.000002  -0.022867
    27  H   -0.000005  -0.000006   0.000000  -0.000003  -0.024182  -0.000004
    28  O   -0.000002  -0.015743  -0.016534   0.000000  -0.000015  -0.014476
    29  H    0.000000  -0.000006  -0.024111  -0.000003   0.000000  -0.024663
    30  O    0.000000   0.000000   0.000000   0.000000   0.000000   0.000000
    31  H    0.000000   0.000000   0.000000   0.000000   0.000000   0.000000
    32  H    0.000000   0.000000   0.000000   0.000000   0.000000   0.000000
    33  H    0.000000   0.000000   0.000000  -0.000008   0.000000   0.000000
    34  H    0.000000   0.000000  -0.000057   0.224490  -0.000063  -0.000009
             19         20         21         22         23         24
     1  C    0.000000   0.000000   0.000000   0.000000  -0.004414   0.000000
     2  Si  -0.000143   0.002836   0.376568  -0.000834  -0.000152  -0.000815
     3  Si  -0.000096  -0.000492  -0.000297   0.370679   0.000127  -0.000035
     4  V    0.002104  -0.000067   0.001209   0.005878   0.231764   0.005906
     5  Si  -0.001361   0.003362  -0.000267  -0.000033   0.000070   0.370712
     6  Si  -0.000490   0.339682  -0.000643  -0.000059  -0.000022  -0.000061
     7  Si   0.005393   0.004944  -0.000058  -0.001961   0.000301  -0.000001
     8  Si   0.320424  -0.000505   0.000000   0.000004   0.003451   0.000004
     9  Si   0.372729   0.344125  -0.000058  -0.000001   0.000325  -0.002005
    10  O    0.000000  -0.000003  -0.024067  -0.023659   0.000001  -0.000004
    11  O    0.000000   0.000000  -0.000005  -0.024615   0.003991   0.000002
    12  O    0.000001  -0.000001  -0.000006   0.000002   0.003991  -0.024532
    13  O   -0.000001  -0.000056  -0.024108  -0.000004   0.000001  -0.023674
    14  O    0.000000  -0.015797  -0.024493  -0.000006   0.000000  -0.000006
    15  O   -0.000019  -0.000018  -0.000004  -0.022674  -0.000182   0.000000
    16  O   -0.015105   0.000000   0.000000   0.000000  -0.010542   0.000000
    17  O   -0.015398  -0.016555  -0.000004   0.000000  -0.000189  -0.022745
    18  O   -0.017947  -0.000051   0.000000  -0.000002  -0.000102   0.000000
    19  O    8.025172  -0.014538   0.000000   0.000000  -0.000100  -0.000002
    20  O   -0.014538   8.052583  -0.000006   0.000000   0.000000  -0.000004
    21  H    0.000000  -0.000006   0.775307   0.000001   0.000000   0.000001
    22  H    0.000000   0.000000   0.000001   0.784467   0.000007   0.000000
    23  O   -0.000100   0.000000   0.000000   0.000007   8.224446   0.000008
    24  H   -0.000002  -0.000004   0.000001   0.000000   0.000008   0.784406
    25  H   -0.000007  -0.024032  -0.000001   0.000000   0.000000   0.000000
    26  H   -0.022935  -0.000013   0.000000   0.000000  -0.000002   0.000000
    27  H   -0.024622  -0.024257   0.000000   0.000000   0.000000   0.000024
    28  O   -0.000049  -0.016345  -0.000006  -0.000004   0.000000   0.000000
    29  H   -0.000004  -0.000005   0.000000   0.000024   0.000000   0.000000
    30  O    0.000000   0.000000   0.000000   0.000003   0.005642   0.000003
    31  H    0.000000   0.000000   0.000000   0.000000   0.000045   0.000000
    32  H    0.000000   0.000000   0.000000   0.000000   0.000037   0.000000
    33  H    0.000000   0.000000   0.000000   0.000000   0.002125   0.000000
    34  H    0.000002   0.000001   0.000000   0.000000   0.038382   0.000000
             25         26         27         28         29         30
     1  C    0.000000   0.000000   0.000000   0.000000   0.000000   0.217669
     2  Si  -0.000523   0.000000  -0.000042   0.002352  -0.000043  -0.000028
     3  Si  -0.000046  -0.000004  -0.000003   0.003115  -0.001662   0.000100
     4  V    0.000027   0.000364   0.000893  -0.000099   0.000891   0.146021
     5  Si  -0.000045  -0.000004  -0.001680  -0.000449  -0.000002   0.000054
     6  Si   0.377888  -0.000128  -0.001125   0.340622  -0.001068   0.000000
     7  Si  -0.000681  -0.001057   0.000084   0.344221   0.378639  -0.000005
     8  Si  -0.000097   0.383540  -0.001563  -0.000352  -0.001570  -0.000001
     9  Si  -0.000746  -0.001027   0.378581   0.004608   0.000082  -0.000005
    10  O   -0.000006   0.000000   0.000000  -0.000046  -0.000004   0.000000
    11  O    0.000000   0.000000   0.000000  -0.000001  -0.000003  -0.000246
    12  O    0.000000   0.000000  -0.000003   0.000000   0.000000  -0.000204
    13  O   -0.000006   0.000000  -0.000005  -0.000002   0.000000   0.000000
    14  O   -0.024743   0.000000  -0.000006  -0.015743  -0.000006   0.000000
    15  O   -0.000004  -0.000002   0.000000  -0.016534  -0.024111   0.000000
    16  O    0.000000  -0.024740  -0.000003   0.000000  -0.000003   0.000000
    17  O   -0.000004  -0.000002  -0.024182  -0.000015   0.000000   0.000000
    18  O   -0.000007  -0.022867  -0.000004  -0.014476  -0.024663   0.000000
    19  O   -0.000007  -0.022935  -0.024622  -0.000049  -0.000004   0.000000
    20  O   -0.024032  -0.000013  -0.024257  -0.016345  -0.000005   0.000000
    21  H   -0.000001   0.000000   0.000000  -0.000006   0.000000   0.000000
    22  H    0.000000   0.000000   0.000000  -0.000004   0.000024   0.000003
    23  O    0.000000  -0.000002   0.000000   0.000000   0.000000   0.005642
    24  H    0.000000   0.000000   0.000024   0.000000   0.000000   0.000003
    25  H    0.776603   0.000000  -0.000002  -0.024148  -0.000002   0.000000
    26  H    0.000000   0.780652  -0.000005  -0.000013  -0.000005   0.000000
    27  H   -0.000002  -0.000005   0.788891  -0.000005   0.000000   0.000000
    28  O   -0.024148  -0.000013  -0.000005   8.052813  -0.024274   0.000000
    29  H   -0.000002  -0.000005   0.000000  -0.024274   0.788637   0.000000
    30  O    0.000000   0.000000   0.000000   0.000000   0.000000   8.310037
    31  H    0.000000   0.000000   0.000000   0.000000   0.000000  -0.034119
    32  H    0.000000   0.000000   0.000000   0.000000   0.000000  -0.034080
    33  H    0.000000   0.000000   0.000000   0.000000   0.000000  -0.030015
    34  H    0.000000   0.001317   0.000000   0.000001   0.000000  -0.000040
             31         32         33         34
     1  C    0.377535   0.377506   0.369099  -0.000015
     2  Si   0.000000   0.000000   0.000000   0.000003
     3  Si   0.000036  -0.000002  -0.000030  -0.000102
     4  V   -0.000508  -0.000636   0.000060   0.000703
     5  Si  -0.000002   0.000040  -0.000034  -0.000103
     6  Si   0.000000   0.000000   0.000000   0.000009
     7  Si   0.000000   0.000000   0.000000  -0.000267
     8  Si   0.000000   0.000000  -0.000008  -0.016767
     9  Si   0.000000   0.000000   0.000000  -0.000270
    10  O    0.000000   0.000000   0.000000   0.000000
    11  O    0.000012   0.000004  -0.000046  -0.000065
    12  O    0.000004   0.000012  -0.000047  -0.000062
    13  O    0.000000   0.000000   0.000000   0.000000
    14  O    0.000000   0.000000   0.000000   0.000000
    15  O    0.000000   0.000000   0.000000  -0.000057
    16  O    0.000000   0.000000  -0.000008   0.224490
    17  O    0.000000   0.000000   0.000000  -0.000063
    18  O    0.000000   0.000000   0.000000  -0.000009
    19  O    0.000000   0.000000   0.000000   0.000002
    20  O    0.000000   0.000000   0.000000   0.000001
    21  H    0.000000   0.000000   0.000000   0.000000
    22  H    0.000000   0.000000   0.000000   0.000000
    23  O    0.000045   0.000037   0.002125   0.038382
    24  H    0.000000   0.000000   0.000000   0.000000
    25  H    0.000000   0.000000   0.000000   0.000000
    26  H    0.000000   0.000000   0.000000   0.001317
    27  H    0.000000   0.000000   0.000000   0.000000
    28  O    0.000000   0.000000   0.000000   0.000001
    29  H    0.000000   0.000000   0.000000   0.000000
    30  O   -0.034119  -0.034080  -0.030015  -0.000040
    31  H    0.539109  -0.034424  -0.034640  -0.000001
    32  H   -0.034424   0.539454  -0.034810  -0.000001
    33  H   -0.034640  -0.034810   0.537860   0.000097
    34  H   -0.000001  -0.000001   0.000097   0.285862
 Mulliken atomic charges:
              1
     1  C   -0.204256
     2  Si   1.042227
     3  Si   1.110384
     4  V    1.336547
     5  Si   1.110758
     6  Si   1.042291
     7  Si   1.008764
     8  Si   0.999539
     9  Si   1.009146
    10  O   -0.633083
    11  O   -0.720115
    12  O   -0.720769
    13  O   -0.632946
    14  O   -0.629672
    15  O   -0.625297
    16  O   -0.713683
    17  O   -0.627391
    18  O   -0.613118
    19  O   -0.613008
    20  O   -0.634789
    21  H   -0.079066
    22  H   -0.087212
    23  O   -0.499010
    24  H   -0.087180
    25  H   -0.079418
    26  H   -0.093069
    27  H   -0.090966
    28  O   -0.635172
    29  H   -0.090846
    30  O   -0.580790
    31  H    0.186951
    32  H    0.186898
    33  H    0.190398
    34  H    0.466955
 Sum of Mulliken charges=   0.00000
 Atomic charges with hydrogens summed into heavy atoms:
              1
     1  C    0.359991
     2  Si   0.963161
     3  Si   1.023172
     4  V    1.336547
     5  Si   1.023577
     6  Si   0.962874
     7  Si   0.917918
     8  Si   0.906470
     9  Si   0.918180
    10  O   -0.633083
    11  O   -0.720115
    12  O   -0.720769
    13  O   -0.632946
    14  O   -0.629672
    15  O   -0.625297
    16  O   -0.246728
    17  O   -0.627391
    18  O   -0.613118
    19  O   -0.613008
    20  O   -0.634789
    21  H    0.000000
    22  H    0.000000
    23  O   -0.499010
    24  H    0.000000
    25  H    0.000000
    26  H    0.000000
    27  H    0.000000
    28  O   -0.635172
    29  H    0.000000
    30  O   -0.580790
    31  H    0.000000
    32  H    0.000000
    33  H    0.000000
    34  H    0.000000
 Sum of Mulliken charges=   0.00000
 Electronic spatial extent (au):  <R**2>=  9116.8020
 Charge=     0.0000 electrons
 Dipole moment (field-independent basis, Debye):
    X=    -2.3325    Y=    -1.4272    Z=     0.0376  Tot=     2.7348
 Quadrupole moment (field-independent basis, Debye-Ang):
   XX=  -165.9312   YY=  -197.3302   ZZ=  -182.2997
   XY=    -4.5851   XZ=    -0.1523   YZ=     0.0217
 Traceless Quadrupole moment (field-independent basis, Debye-Ang):
   XX=    15.9225   YY=   -15.4765   ZZ=    -0.4460
   XY=    -4.5851   XZ=    -0.1523   YZ=     0.0217
 Octapole moment (field-independent basis, Debye-Ang**2):
  XXX=  -174.6514  YYY=   -47.0795  ZZZ=    -0.0841  XYY=    -5.8126
  XXY=    45.7027  XXZ=     1.0673  XZZ=   -13.9210  YZZ=    -2.6813
  YYZ=    -0.3004  XYZ=     0.0181
 Hexadecapole moment (field-independent basis, Debye-Ang**3):
 XXXX= -4719.3228 YYYY= -3991.4145 ZZZZ= -2546.8809 XXXY=  -222.6415
 XXXZ=    -1.6276 YYYX=    38.6889 YYYZ=     0.1461 ZZZX=    -0.3805
 ZZZY=     0.3217 XXYY= -1534.2610 XXZZ= -1353.7752 YYZZ= -1068.4551
 XXYZ=    -0.0777 YYXZ=    -0.0758 ZZXY=    -7.6192
 N-N= 3.967019021012D+03 E-N=-1.549834585935D+04  KE= 3.139711831305D+03
 1\1\GINC-OUTBACK1\Stability\RB3LYP\GenECP\C1H11O14Si7V1\HUGH\24-Nov-20
 09\0\\# b3lyp/GENECP 6D int(grid=ultrafine) stable=opt scf=qc\\comment
 : from , form a guess using SCF=QC\\0,1\C,0,2.176272,-1.051223,0.77291
 6\Si,0,3.533817,5.189684,4.594734\Si,0,2.406265,4.596772,1.694452\V,0,
 2.150145,1.42687,2.311686\Si,0,2.70214,2.247239,5.403563\Si,0,0.731827
 ,6.257931,5.488233\Si,0,-0.489926,5.627502,2.649297\Si,0,-2.245339,3.2
 02386,3.795751\Si,0,-0.196608,3.334679,6.255712\O,0,3.316836,5.096559,
 2.965671\O,0,2.589443,2.950643,1.534021\O,0,2.8075,1.442669,3.950429\O
 ,0,3.484842,3.682778,5.256606\O,0,2.358199,6.126125,5.25818\O,0,0.8287
 95,4.930063,1.951332\O,0,-2.189168,1.822518,2.922119\O,0,1.127112,2.48
 5565,5.763881\O,0,-1.597772,4.478082,2.968606\O,0,-1.424376,3.058863,5
 .222957\O,0,0.181696,4.936152,6.294433\H,0,4.841101,5.790401,4.869793\
 H,0,2.891355,5.232234,0.464317\O,0,0.564201,1.295318,2.373369\H,0,3.36
 481,1.431909,6.42753\H,0,0.464927,7.460179,6.281931\H,0,-3.657581,3.48
 0167,4.080851\H,0,-0.579393,2.906361,7.60539\O,0,-0.022032,6.386703,4.
 033328\H,0,-1.05896,6.622734,1.73436\O,0,2.766051,0.073403,1.410728\H,
 0,2.451537,-1.031572,-0.286777\H,0,2.573247,-1.960351,1.236687\H,0,1.0
 85813,-1.025725,0.875533\H,0,-1.301376,1.514983,2.658779\\Version=AM64
 L-G03RevD.01\State=1-A\HF=-3196.8643564\RMSD=0.000e+00\Thermal=0.\Dipo
 le=0.8406423,-0.5442859,-0.393328\PG=C01 [X(C1H11O14Si7V1)]\\@


 WOMEN HOLD UP HALF THE SKY. -- MAO TSE TUNG
 Job cpu time:  0 days  8 hours 25 minutes 44.6 seconds.
 File lengths (MBytes):  RWF=    557 Int=      0 D2E=      0 Chk=     41 Scr=      1
 Normal termination of Gaussian 03 at Tue Nov 24 14:29:58 2009.
