 Entering Gaussian System, Link 0=g03
 Input=gaussjob.com
 Output=gaussjob.log
 Initial command:
 /usr/local/g03/l1.exe /scratch/Gau-8080.inp -scrdir=/scratch/
 Entering Link 1 = /usr/local/g03/l1.exe PID=      8081.
  
 Copyright (c) 1988,1990,1992,1993,1995,1998,2003,2004, Gaussian, Inc.
                  All Rights Reserved.
  
 This is the Gaussian(R) 03 program.  It is based on the
 the Gaussian(R) 98 system (copyright 1998, Gaussian, Inc.),
 the Gaussian(R) 94 system (copyright 1995, Gaussian, Inc.),
 the Gaussian 92(TM) system (copyright 1992, Gaussian, Inc.),
 the Gaussian 90(TM) system (copyright 1990, Gaussian, Inc.),
 the Gaussian 88(TM) system (copyright 1988, Gaussian, Inc.),
 the Gaussian 86(TM) system (copyright 1986, Carnegie Mellon
 University), and the Gaussian 82(TM) system (copyright 1983,
 Carnegie Mellon University). Gaussian is a federally registered
 trademark of Gaussian, Inc.
  
 This software contains proprietary and confidential information,
 including trade secrets, belonging to Gaussian, Inc.
  
 This software is provided under written license and may be
 used, copied, transmitted, or stored only in accord with that
 written license.
  
 The following legend is applicable only to US Government
 contracts under FAR:
  
                    RESTRICTED RIGHTS LEGEND
  
 Use, reproduction and disclosure by the US Government is
 subject to restrictions as set forth in subparagraphs (a)
 and (c) of the Commercial Computer Software - Restricted
 Rights clause in FAR 52.227-19.
  
 Gaussian, Inc.
 340 Quinnipiac St., Bldg. 40, Wallingford CT 06492
  
  
 ---------------------------------------------------------------
 Warning -- This program may not be used in any manner that
 competes with the business of Gaussian, Inc. or will provide
 assistance to any competitor of Gaussian, Inc.  The licensee
 of this program is prohibited from giving any competitor of
 Gaussian, Inc. access to this program.  By using this program,
 the user acknowledges that Gaussian, Inc. is engaged in the
 business of creating and licensing software in the field of
 computational chemistry and represents and warrants to the
 licensee that it is not a competitor of Gaussian, Inc. and that
 it will not use this program in any manner prohibited above.
 ---------------------------------------------------------------
  

 Cite this work as:
 Gaussian 03, Revision D.01,
 M. J. Frisch, G. W. Trucks, H. B. Schlegel, G. E. Scuseria, 
 M. A. Robb, J. R. Cheeseman, J. A. Montgomery, Jr., T. Vreven, 
 K. N. Kudin, J. C. Burant, J. M. Millam, S. S. Iyengar, J. Tomasi, 
 V. Barone, B. Mennucci, M. Cossi, G. Scalmani, N. Rega, 
 G. A. Petersson, H. Nakatsuji, M. Hada, M. Ehara, K. Toyota, 
 R. Fukuda, J. Hasegawa, M. Ishida, T. Nakajima, Y. Honda, O. Kitao, 
 H. Nakai, M. Klene, X. Li, J. E. Knox, H. P. Hratchian, J. B. Cross, 
 V. Bakken, C. Adamo, J. Jaramillo, R. Gomperts, R. E. Stratmann, 
 O. Yazyev, A. J. Austin, R. Cammi, C. Pomelli, J. W. Ochterski, 
 P. Y. Ayala, K. Morokuma, G. A. Voth, P. Salvador, J. J. Dannenberg, 
 V. G. Zakrzewski, S. Dapprich, A. D. Daniels, M. C. Strain, 
 O. Farkas, D. K. Malick, A. D. Rabuck, K. Raghavachari, 
 J. B. Foresman, J. V. Ortiz, Q. Cui, A. G. Baboul, S. Clifford, 
 J. Cioslowski, B. B. Stefanov, G. Liu, A. Liashenko, P. Piskorz, 
 I. Komaromi, R. L. Martin, D. J. Fox, T. Keith, M. A. Al-Laham, 
 C. Y. Peng, A. Nanayakkara, M. Challacombe, P. M. W. Gill, 
 B. Johnson, W. Chen, M. W. Wong, C. Gonzalez, and J. A. Pople, 
 Gaussian, Inc., Wallingford CT, 2004.
 
 ******************************************
 Gaussian 03:  AM64L-G03RevD.01 13-Oct-2005
                28-Oct-2009 
 ******************************************
 %chk=gaussjob.chk
 ---------------------------
 # HF/3-21G guess=read force
 ---------------------------
 1/10=7,30=1,38=1/1,3;
 2/17=6,18=5,40=1/2;
 3/5=5,11=9,16=1,25=1,30=1/1,2,3;
 4/5=1/1;
 5/5=2,38=6/2;
 6/7=2,8=2,9=2,10=2,28=1/1;
 7/29=1/1,2,3,16;
 1/10=7,30=1/3;
 99//99;
 --------------------------------
 Generated by ASE Gaussian driver
 --------------------------------
 Symbolic Z-matrix:
 Charge =  0 Multiplicity = 2
 C                     0.        0.        0. 
 C                     1.47      0.        0. 
 C                     2.205     0.        1.27306 
 C                     1.47      0.        2.54611 
 C                     0.        0.        2.54611 
 C                    -0.735     0.        1.27306 
 H                     2.205     0.       -1.27306 
 H                     3.34845   0.        1.27306 
 H                     2.04173   0.        3.53637 
 H                    -0.57173   0.        3.53637 
 H                    -1.87845   0.        1.27306 
 

 GradGradGradGradGradGradGradGradGradGradGradGradGradGradGradGradGradGrad
 Berny optimization.
 Initialization pass.
 Trust Radius=3.00D-01 FncErr=1.00D-07 GrdErr=1.00D-07
 Number of steps in this run=   2 maximum allowed number of steps=   2.
 GradGradGradGradGradGradGradGradGradGradGradGradGradGradGradGradGradGrad

                          Input orientation:                          
 ---------------------------------------------------------------------
 Center     Atomic     Atomic              Coordinates (Angstroms)
 Number     Number      Type              X           Y           Z
 ---------------------------------------------------------------------
    1          6             0        0.000000    0.000000    0.000000
    2          6             0        1.470000    0.000000    0.000000
    3          6             0        2.205000    0.000000    1.273058
    4          6             0        1.470000    0.000000    2.546115
    5          6             0        0.000000    0.000000    2.546115
    6          6             0       -0.735000    0.000000    1.273058
    7          1             0        2.205000    0.000000   -1.273058
    8          1             0        3.348450    0.000000    1.273058
    9          1             0        2.041725    0.000000    3.536372
   10          1             0       -0.571725    0.000000    3.536372
   11          1             0       -1.878450    0.000000    1.273058
 ---------------------------------------------------------------------
                    Distance matrix (angstroms):
                    1          2          3          4          5
     1  C    0.000000
     2  C    1.470000   0.000000
     3  C    2.546115   1.470000   0.000000
     4  C    2.940000   2.546115   1.469999   0.000000
     5  C    2.546115   2.940000   2.546114   1.470000   0.000000
     6  C    1.470000   2.546115   2.940000   2.546114   1.469999
     7  H    2.546115   1.470000   2.546116   3.889255   4.410000
     8  H    3.582289   2.269196   1.143450   2.269195   3.582288
     9  H    4.083450   3.582289   2.269196   1.143450   2.269196
    10  H    3.582289   4.083450   3.582289   2.269196   1.143450
    11  H    2.269196   3.582289   4.083450   3.582288   2.269195
                    6          7          8          9         10
     6  C    0.000000
     7  H    3.889255   0.000000
     8  H    4.083450   2.791090   0.000000
     9  H    3.582289   4.812200   2.613450   0.000000
    10  H    2.269196   5.553451   4.526628   2.613450   0.000000
    11  H    1.143450   4.812200   5.226900   4.526628   2.613450
                   11
    11  H    0.000000
 Stoichiometry    C6H5(2)
 Framework group  CS[SG(C6H5)]
 Deg. of freedom    19
 Full point group                 CS
 Largest Abelian subgroup         CS      NOp   2
 Largest concise Abelian subgroup C1      NOp   1
                         Standard orientation:                         
 ---------------------------------------------------------------------
 Center     Atomic     Atomic              Coordinates (Angstroms)
 Number     Number      Type              X           Y           Z
 ---------------------------------------------------------------------
    1          6             0       -1.321363    0.770854    0.000000
    2          6             0       -1.321363   -0.699146    0.000000
    3          6             0       -0.048305   -1.434146    0.000000
    4          6             0        1.224752   -0.699146    0.000000
    5          6             0        1.224752    0.770854    0.000000
    6          6             0       -0.048305    1.505854    0.000000
    7          1             0       -2.594420   -1.434146    0.000000
    8          1             0       -0.048305   -2.577596    0.000000
    9          1             0        2.215009   -1.270871    0.000000
   10          1             0        2.215009    1.342579    0.000000
   11          1             0       -0.048305    2.649304    0.000000
 ---------------------------------------------------------------------
 Rotational constants (GHZ):      5.5018170      5.0591858      2.6356128
 Standard basis: 3-21G (6D, 7F)
 There are    52 symmetry adapted basis functions of A'  symmetry.
 There are    12 symmetry adapted basis functions of A"  symmetry.
 Integral buffers will be    131072 words long.
 Raffenetti 2 integral format.
 Two-electron integral symmetry is turned on.
    64 basis functions,   105 primitive gaussians,    64 cartesian basis functions
    21 alpha electrons       20 beta electrons
       nuclear repulsion energy       183.0439382883 Hartrees.
 NAtoms=   11 NActive=   11 NUniq=   11 SFac= 7.50D-01 NAtFMM=   80 NAOKFM=F Big=F
 One-electron integrals computed using PRISM.
 NBasis=    64 RedAO= T  NBF=    52    12
 NBsUse=    64 1.00D-06 NBFU=    52    12
 Initial guess read from the checkpoint file:
 gaussjob.chk
 Initial guess orbital symmetries:
 Alpha Orbitals:
       Occupied  (A') (A') (A') (A') (A') (A') (A') (A') (A') (A')
                 (A') (A') (A') (A') (A') (A') (A") (A') (A') (A")
                 (A")
       Virtual   (A") (A") (A') (A') (A') (A') (A") (A') (A') (A')
                 (A') (A') (A') (A') (A') (A') (A") (A') (A') (A')
                 (A") (A") (A') (A') (A") (A") (A") (A') (A') (A')
                 (A') (A') (A') (A') (A') (A') (A') (A') (A') (A')
                 (A') (A') (A')
 Beta  Orbitals:
       Occupied  (A') (A') (A') (A') (A') (A') (A') (A') (A') (A')
                 (A') (A') (A') (A') (A') (A') (A") (A') (A") (A")
       Virtual   (A') (A") (A") (A') (A') (A') (A') (A') (A") (A')
                 (A') (A') (A') (A') (A') (A') (A') (A") (A') (A')
                 (A") (A") (A') (A') (A') (A") (A") (A") (A') (A')
                 (A') (A') (A') (A') (A') (A') (A') (A') (A') (A')
                 (A') (A') (A') (A')
 <S**2> of initial guess= 1.5493
 Requested convergence on RMS density matrix=1.00D-08 within 128 cycles.
 Requested convergence on MAX density matrix=1.00D-06.
 Requested convergence on             energy=1.00D-06.
 No special actions if energy rises.
 Keep R1 and R2 integrals in memory in canonical form, NReq=     5298032.
 SCF Done:  E(UHF) =  -228.688654599     A.U. after   18 cycles
             Convg  =    0.7781D-08             -V/T =  2.0088
             S**2   =   1.9132
 Annihilation of the first spin contaminant:
 S**2 before annihilation     1.9132,   after     2.2902

 **********************************************************************

            Population analysis using the SCF density.

 **********************************************************************

 Orbital symmetries:
 Alpha Orbitals:
       Occupied  (A') (A') (A') (A') (A') (A') (A') (A') (A') (A')
                 (A') (A') (A') (A') (A') (A') (A") (A') (A') (A")
                 (A")
       Virtual   (A") (A") (A') (A') (A') (A") (A') (A') (A') (A')
                 (A') (A') (A') (A') (A') (A') (A") (A') (A') (A')
                 (A") (A") (A') (A') (A") (A") (A') (A") (A') (A')
                 (A') (A') (A') (A') (A') (A') (A') (A') (A') (A')
                 (A') (A') (A')
 Beta  Orbitals:
       Occupied  (A') (A') (A') (A') (A') (A') (A') (A') (A') (A')
                 (A') (A') (A') (A') (A') (A') (A") (A') (A") (A")
       Virtual   (A') (A") (A") (A') (A') (A') (A') (A') (A") (A')
                 (A') (A') (A') (A') (A') (A') (A') (A") (A') (A')
                 (A") (A") (A') (A') (A') (A") (A") (A") (A') (A')
                 (A') (A') (A') (A') (A') (A') (A') (A') (A') (A')
                 (A') (A') (A') (A')
 The electronic state is 2-A'.
 Alpha  occ. eigenvalues --  -11.23593 -11.22198 -11.22014 -11.21836 -11.20053
 Alpha  occ. eigenvalues --  -11.19756  -1.11633  -0.99611  -0.99071  -0.79945
 Alpha  occ. eigenvalues --   -0.78478  -0.66695  -0.61033  -0.59945  -0.55917
 Alpha  occ. eigenvalues --   -0.53537  -0.50006  -0.46866  -0.42538  -0.38732
 Alpha  occ. eigenvalues --   -0.37401
 Alpha virt. eigenvalues --    0.15677   0.16476   0.20085   0.26523   0.30371
 Alpha virt. eigenvalues --    0.32695   0.32856   0.33180   0.43598   0.45412
 Alpha virt. eigenvalues --    0.48173   0.48641   0.68796   0.73535   0.90482
 Alpha virt. eigenvalues --    0.93509   0.94615   0.95732   0.97866   0.98690
 Alpha virt. eigenvalues --    1.01249   1.01764   1.02877   1.08459   1.11068
 Alpha virt. eigenvalues --    1.11216   1.16176   1.16260   1.20853   1.23885
 Alpha virt. eigenvalues --    1.30229   1.33996   1.35081   1.53570   1.55550
 Alpha virt. eigenvalues --    1.57690   1.67344   1.68741   1.75364   1.75812
 Alpha virt. eigenvalues --    2.07502   2.08837   2.52114
  Beta  occ. eigenvalues --  -11.24543 -11.21946 -11.21644 -11.20032 -11.19860
  Beta  occ. eigenvalues --  -11.19113  -1.10558  -0.98847  -0.97527  -0.79278
  Beta  occ. eigenvalues --   -0.76238  -0.65865  -0.59750  -0.58814  -0.55171
  Beta  occ. eigenvalues --   -0.51383  -0.49484  -0.45626  -0.38105  -0.37186
  Beta virt. eigenvalues --    0.11730   0.15763   0.18208   0.20017   0.26560
  Beta virt. eigenvalues --    0.30509   0.33120   0.33485   0.33997   0.44337
  Beta virt. eigenvalues --    0.46167   0.49790   0.50648   0.70096   0.75391
  Beta virt. eigenvalues --    0.92937   0.94033   0.94846   0.97857   0.99303
  Beta virt. eigenvalues --    1.01312   1.01799   1.03771   1.06709   1.08335
  Beta virt. eigenvalues --    1.11155   1.12247   1.16928   1.19006   1.21310
  Beta virt. eigenvalues --    1.24655   1.30438   1.34539   1.35547   1.53871
  Beta virt. eigenvalues --    1.56001   1.57550   1.67507   1.68950   1.75700
  Beta virt. eigenvalues --    1.76045   2.08544   2.08904   2.52931
          Condensed to atoms (all electrons):
              1          2          3          4          5          6
     1  C    5.414178   0.387102  -0.087262   0.003830  -0.076875   0.379657
     2  C    0.387102   5.268291   0.384897  -0.082335   0.004604  -0.101802
     3  C   -0.087262   0.384897   5.276950   0.392890  -0.083460   0.007866
     4  C    0.003830  -0.082335   0.392890   5.272410   0.395231  -0.084428
     5  C   -0.076875   0.004604  -0.083460   0.395231   5.272385   0.384876
     6  C    0.379657  -0.101802   0.007866  -0.084428   0.384876   5.313599
     7  H   -0.020332   0.333149  -0.021822   0.000958  -0.000054   0.001086
     8  H    0.001301  -0.026528   0.383115  -0.028730   0.001413  -0.000036
     9  H    0.000007   0.001362  -0.027846   0.383548  -0.027946   0.001363
    10  H    0.001259  -0.000028   0.001401  -0.028102   0.384373  -0.028010
    11  H   -0.029768   0.001634  -0.000113   0.001511  -0.030913   0.381928
              7          8          9         10         11
     1  C   -0.020332   0.001301   0.000007   0.001259  -0.029768
     2  C    0.333149  -0.026528   0.001362  -0.000028   0.001634
     3  C   -0.021822   0.383115  -0.027846   0.001401  -0.000113
     4  C    0.000958  -0.028730   0.383548  -0.028102   0.001511
     5  C   -0.000054   0.001413  -0.027946   0.384373  -0.030913
     6  C    0.001086  -0.000036   0.001363  -0.028010   0.381928
     7  H    0.569662  -0.000605  -0.000011   0.000000  -0.000009
     8  H   -0.000605   0.433730  -0.000426  -0.000018   0.000000
     9  H   -0.000011  -0.000426   0.437936  -0.000361  -0.000018
    10  H    0.000000  -0.000018  -0.000361   0.436541  -0.000443
    11  H   -0.000009   0.000000  -0.000018  -0.000443   0.440166
 Mulliken atomic charges:
              1
     1  C    0.026904
     2  C   -0.170344
     3  C   -0.226614
     4  C   -0.226783
     5  C   -0.223632
     6  C   -0.256098
     7  H    0.137976
     8  H    0.236784
     9  H    0.232394
    10  H    0.233389
    11  H    0.236025
 Sum of Mulliken charges=   0.00000
 Atomic charges with hydrogens summed into heavy atoms:
              1
     1  C    0.026904
     2  C   -0.032369
     3  C    0.010170
     4  C    0.005612
     5  C    0.009756
     6  C   -0.020074
     7  H    0.000000
     8  H    0.000000
     9  H    0.000000
    10  H    0.000000
    11  H    0.000000
 Sum of Mulliken charges=   0.00000
          Atomic-Atomic Spin Densities.
              1          2          3          4          5          6
     1  C    2.155195  -0.021645  -0.032342   0.002144  -0.029975  -0.033582
     2  C   -0.021645  -1.311130   0.005318   0.017757  -0.004209   0.032445
     3  C   -0.032342   0.005318   1.130846  -0.005142  -0.005910  -0.004303
     4  C    0.002144   0.017757  -0.005142  -1.081018  -0.004377   0.015570
     5  C   -0.029975  -0.004209  -0.005910  -0.004377   1.123712  -0.002485
     6  C   -0.033582   0.032445  -0.004303   0.015570  -0.002485  -1.135776
     7  H   -0.007657   0.023499  -0.006926   0.000050  -0.000026   0.000103
     8  H    0.000466   0.004613  -0.020426   0.004150  -0.000064   0.000028
     9  H   -0.000022  -0.000135  -0.004009   0.017678  -0.004082  -0.000053
    10  H    0.000459   0.000022  -0.000045   0.003659  -0.018952   0.004141
    11  H   -0.008085   0.000028  -0.000059   0.000061  -0.007707   0.025790
              7          8          9         10         11
     1  C   -0.007657   0.000466  -0.000022   0.000459  -0.008085
     2  C    0.023499   0.004613  -0.000135   0.000022   0.000028
     3  C   -0.006926  -0.020426  -0.004009  -0.000045  -0.000059
     4  C    0.000050   0.004150   0.017678   0.003659   0.000061
     5  C   -0.000026  -0.000064  -0.004082  -0.018952  -0.007707
     6  C    0.000103   0.000028  -0.000053   0.004141   0.025790
     7  H    0.222483   0.000621  -0.000002   0.000000   0.000000
     8  H    0.000621  -0.061703  -0.000173   0.000005   0.000000
     9  H   -0.000002  -0.000173   0.067447  -0.000099  -0.000003
    10  H    0.000000   0.000005  -0.000099  -0.060182   0.000446
    11  H    0.000000   0.000000  -0.000003   0.000446   0.077007
 Mulliken atomic spin densities:
              1
     1  C    2.024955
     2  C   -1.253436
     3  C    1.057002
     4  C   -1.029467
     5  C    1.045925
     6  C   -1.098122
     7  H    0.232145
     8  H   -0.072481
     9  H    0.076546
    10  H   -0.070545
    11  H    0.087479
 Sum of Mulliken spin densities=   1.00000
 Electronic spatial extent (au):  <R**2>=   484.3306
 Charge=     0.0000 electrons
 Dipole moment (field-independent basis, Debye):
    X=     0.9220    Y=    -0.2723    Z=     0.0000  Tot=     0.9614
 Quadrupole moment (field-independent basis, Debye-Ang):
   XX=   -33.0964   YY=   -31.2497   ZZ=   -41.4122
   XY=     1.1946   XZ=     0.0000   YZ=     0.0000
 Traceless Quadrupole moment (field-independent basis, Debye-Ang):
   XX=     2.1564   YY=     4.0031   ZZ=    -6.1594
   XY=     1.1946   XZ=     0.0000   YZ=     0.0000
 Octapole moment (field-independent basis, Debye-Ang**2):
  XXX=     8.1795  YYY=    -0.2606  ZZZ=     0.0000  XYY=     2.7232
  XXY=    -4.0239  XXZ=     0.0000  XZZ=     1.1197  YZZ=     0.2049
  YYZ=     0.0000  XYZ=     0.0000
 Hexadecapole moment (field-independent basis, Debye-Ang**3):
 XXXX=  -289.7457 YYYY=  -281.8512 ZZZZ=   -44.4558 XXXY=     3.8069
 XXXZ=     0.0000 YYYX=    -6.7716 YYYZ=     0.0000 ZZZX=     0.0000
 ZZZY=     0.0000 XXYY=   -97.4331 XXZZ=   -68.9663 YYZZ=   -69.6826
 XXYZ=     0.0000 YYXZ=     0.0000 ZZXY=    -4.1951
 N-N= 1.830439382883D+02 E-N=-8.965461457750D+02  KE= 2.266991905524D+02
 Symmetry A'   KE= 2.203928027206D+02
 Symmetry A"   KE= 6.306387831837D+00
                          Isotropic Fermi Contact Couplings
        Atom                 a.u.       MegaHertz       Gauss      10(-4) cm-1
     1  C(13)              0.65108     731.93677     261.17323     244.14783
     2  C(13)             -0.29531    -331.98450    -118.46032    -110.73811
     3  C(13)              0.23240     261.26365      93.22536      87.14817
     4  C(13)             -0.21441    -241.04006     -86.00908     -80.40231
     5  C(13)              0.23219     261.02984      93.14193      87.07018
     6  C(13)             -0.20916    -235.13278     -83.90122     -78.43185
     7  H(1)               0.05698     254.68506      90.87796      84.95379
     8  H(1)              -0.01897     -84.80874     -30.26186     -28.28915
     9  H(1)               0.02024      90.48048      32.28568      30.18104
    10  H(1)              -0.01816     -81.16999     -28.96347     -27.07539
    11  H(1)               0.02450     109.52709      39.08199      36.53431
 --------------------------------------------------------
       Center         ----  Spin Dipole Couplings  ----
                      3XX-RR        3YY-RR        3ZZ-RR
 --------------------------------------------------------
     1   Atom        0.171001     -0.428121      0.257119
     2   Atom        0.208637      0.401804     -0.610441
     3   Atom       -0.291881     -0.276357      0.568237
     4   Atom        0.287740      0.299632     -0.587371
     5   Atom       -0.252855     -0.305632      0.558487
     6   Atom        0.374015      0.264411     -0.638427
     7   Atom       -0.039651      0.026742      0.012909
     8   Atom       -0.048676      0.059546     -0.010870
     9   Atom       -0.027801      0.021933      0.005868
    10   Atom        0.034629     -0.023439     -0.011191
    11   Atom        0.053109     -0.051080     -0.002028
 --------------------------------------------------------
                        XY            XZ            YZ
 --------------------------------------------------------
     1   Atom       -0.508695      0.000000      0.000000
     2   Atom       -0.091894      0.000000      0.000000
     3   Atom       -0.022887      0.000000      0.000000
     4   Atom        0.004533      0.000000      0.000000
     5   Atom       -0.012454      0.000000      0.000000
     6   Atom        0.029637      0.000000      0.000000
     7   Atom       -0.034718      0.000000      0.000000
     8   Atom       -0.000490      0.000000      0.000000
     9   Atom        0.042890      0.000000      0.000000
    10   Atom        0.046318      0.000000      0.000000
    11   Atom        0.015943      0.000000      0.000000
 --------------------------------------------------------


 ---------------------------------------------------------------------------------
              Anisotropic Spin Dipole Couplings in Principal Axis System
 ---------------------------------------------------------------------------------

       Atom             a.u.   MegaHertz   Gauss  10(-4) cm-1        Axes

              Baa    -0.7189   -96.470   -34.423   -32.179  0.4963  0.8682  0.0000
     1 C(13)  Bbb     0.2571    34.503    12.311    11.509  0.0000  0.0000  1.0000
              Bcc     0.4618    61.967    22.111    20.670  0.8682 -0.4963  0.0000
 
              Baa    -0.6104   -81.915   -29.229   -27.324  0.0000  0.0000  1.0000
     2 C(13)  Bbb     0.1719    23.068     8.231     7.695  0.9286  0.3712  0.0000
              Bcc     0.4385    58.847    20.998    19.629 -0.3712  0.9286  0.0000
 
              Baa    -0.3083   -41.369   -14.761   -13.799  0.8128  0.5826  0.0000
     3 C(13)  Bbb    -0.2600   -34.883   -12.447   -11.636 -0.5826  0.8128  0.0000
              Bcc     0.5682    76.252    27.209    25.435  0.0000  0.0000  1.0000
 
              Baa    -0.5874   -78.820   -28.125   -26.291  0.0000  0.0000  1.0000
     4 C(13)  Bbb     0.2862    38.407    13.704    12.811  0.9474 -0.3199  0.0000
              Bcc     0.3012    40.413    14.420    13.480  0.3199  0.9474  0.0000
 
              Baa    -0.3084   -41.387   -14.768   -13.805  0.2187  0.9758  0.0000
     5 C(13)  Bbb    -0.2501   -33.556   -11.974   -11.193  0.9758 -0.2187  0.0000
              Bcc     0.5585    74.944    26.742    24.998  0.0000  0.0000  1.0000
 
              Baa    -0.6384   -85.671   -30.569   -28.577  0.0000  0.0000  1.0000
     6 C(13)  Bbb     0.2569    34.475    12.302    11.500 -0.2453  0.9694  0.0000
              Bcc     0.3815    51.196    18.268    17.077  0.9694  0.2453  0.0000
 
              Baa    -0.0545   -29.073   -10.374    -9.698  0.9195  0.3930  0.0000
     7 H(1)   Bbb     0.0129     6.887     2.458     2.297  0.0000  0.0000  1.0000
              Bcc     0.0416    22.186     7.916     7.400 -0.3930  0.9195  0.0000
 
              Baa    -0.0487   -25.973    -9.268    -8.664  1.0000  0.0045  0.0000
     8 H(1)   Bbb    -0.0109    -5.800    -2.069    -1.935  0.0000  0.0000  1.0000
              Bcc     0.0595    31.772    11.337    10.598 -0.0045  1.0000  0.0000
 
              Baa    -0.0525   -28.018    -9.997    -9.346  0.8665 -0.4992  0.0000
     9 H(1)   Bbb     0.0059     3.131     1.117     1.044  0.0000  0.0000  1.0000
              Bcc     0.0466    24.887     8.880     8.301  0.4992  0.8665  0.0000
 
              Baa    -0.0491   -26.182    -9.342    -8.733 -0.4842  0.8750  0.0000
    10 H(1)   Bbb    -0.0112    -5.971    -2.131    -1.992  0.0000  0.0000  1.0000
              Bcc     0.0603    32.153    11.473    10.725  0.8750  0.4842  0.0000
 
              Baa    -0.0535   -28.527   -10.179    -9.515 -0.1480  0.9890  0.0000
    11 H(1)   Bbb    -0.0020    -1.082    -0.386    -0.361  0.0000  0.0000  1.0000
              Bcc     0.0555    29.609    10.565     9.876  0.9890  0.1480  0.0000
 

 ---------------------------------------------------------------------------------

 ***** Axes restored to original set *****
 -------------------------------------------------------------------
 Center     Atomic                   Forces (Hartrees/Bohr)
 Number     Number              X              Y              Z
 -------------------------------------------------------------------
    1          6           0.040878005    0.000000000    0.057313991
    2          6           0.017413567    0.000000000   -0.048338908
    3          6          -0.001914641    0.000000000   -0.001676833
    4          6          -0.005215889    0.000000000   -0.006598967
    5          6           0.005949889    0.000000000   -0.005849235
    6          6          -0.004205332    0.000000000   -0.005820574
    7          1          -0.051680084    0.000000000    0.089821626
    8          1          -0.045667546    0.000000000   -0.000518110
    9          1          -0.022179236    0.000000000   -0.039262470
   10          1           0.021924818    0.000000000   -0.039518013
   11          1           0.044696448    0.000000000    0.000447492
 -------------------------------------------------------------------
 Cartesian Forces:  Max     0.089821626 RMS     0.028440554
 ------------------------------------------------------------------------
           Internal Coordinate Forces (Hartree/Bohr or radian)
 Cent Atom N1     Length/X     N2     Alpha/Y      N3      Beta/Z       J
 ------------------------------------------------------------------------
   1  C         0.040878(   1)      0.000000(  12)      0.057314(  23)
   2  C         0.017414(   2)      0.000000(  13)     -0.048339(  24)
   3  C        -0.001915(   3)      0.000000(  14)     -0.001677(  25)
   4  C        -0.005216(   4)      0.000000(  15)     -0.006599(  26)
   5  C         0.005950(   5)      0.000000(  16)     -0.005849(  27)
   6  C        -0.004205(   6)      0.000000(  17)     -0.005821(  28)
   7  H        -0.051680(   7)      0.000000(  18)      0.089822(  29)
   8  H        -0.045668(   8)      0.000000(  19)     -0.000518(  30)
   9  H        -0.022179(   9)      0.000000(  20)     -0.039262(  31)
  10  H         0.021925(  10)      0.000000(  21)     -0.039518(  32)
  11  H         0.044696(  11)      0.000000(  22)      0.000447(  33)
 ------------------------------------------------------------------------
 Internal  Forces:  Max     0.089821626 RMS     0.028440554

 GradGradGradGradGradGradGradGradGradGradGradGradGradGradGradGradGradGrad
 Berny optimization.
 Search for a local minimum.
 Step number   1 out of a maximum of   2
 All quantities printed in internal units (Hartrees-Bohrs-Radians)
 Second derivative matrix not updated -- first step.
     Eigenvalues ---    0.00814   0.01042   0.03416   0.04041   0.06075
     Eigenvalues ---    0.06224   0.06353   0.08766   0.09425   0.09913
     Eigenvalues ---    0.15372   0.16163   0.17276   0.21786   0.25346
     Eigenvalues ---    0.37335   0.48357   0.65808   0.76150   0.82834
     Eigenvalues ---    0.88833   0.89783   0.94250   0.97861   1.11646
     Eigenvalues ---    1.21884   1.22695
 Quadratic step=7.685D-01 exceeds max=3.000D-01 adjusted using Lamda=-2.183D-01.
 Angle between NR and scaled steps=  17.98 degrees.
 Angle between quadratic step and forces=  29.20 degrees.
 Linear search not attempted -- first point.
 TrRot=  0.005126  0.000000  0.003653  0.000000  0.000264  0.000000
 Variable       Old X    -DE/DX   Delta X   Delta X   Delta X     New X
                                 (Linear)    (Quad)   (Total)
    X1        0.00000   0.04088   0.00000   0.07874   0.08390   0.08390
    Y1        0.00000   0.00000   0.00000   0.00000   0.00000   0.00000
    Z1        0.00000   0.05731   0.00000   0.12056   0.12419   0.12419
    X2        2.77790   0.01741   0.00000   0.04285   0.04796   2.82585
    Y2        0.00000   0.00000   0.00000   0.00000   0.00000   0.00000
    Z2        0.00000  -0.04834   0.00000  -0.06945  -0.06655  -0.06655
    X3        4.16685  -0.00191   0.00000  -0.05332  -0.04756   4.11929
    Y3        0.00000   0.00000   0.00000   0.00000   0.00000   0.00000
    Z3        2.40573  -0.00168   0.00000  -0.01828  -0.01571   2.39002
    X4        2.77790  -0.00522   0.00000  -0.04770  -0.04131   2.73658
    Y4        0.00000   0.00000   0.00000   0.00000   0.00000   0.00000
    Z4        4.81146  -0.00660   0.00000  -0.03480  -0.03187   4.77959
    X5        0.00000   0.00595   0.00000  -0.00088   0.00552   0.00552
    Y5        0.00000   0.00000   0.00000   0.00000   0.00000   0.00000
    Z5        4.81146  -0.00585   0.00000  -0.00924  -0.00559   4.80587
    X6       -1.38895  -0.00421   0.00000   0.02470   0.03047  -1.35848
    Y6        0.00000   0.00000   0.00000   0.00000   0.00000   0.00000
    Z6        2.40573  -0.00582   0.00000   0.03566   0.03967   2.44540
    X7        4.16685  -0.05168   0.00000  -0.04510  -0.04059   4.12625
    Y7        0.00000   0.00000   0.00000   0.00000   0.00000   0.00000
    Z7       -2.40573   0.08982   0.00000   0.07648   0.07904  -2.32669
    X8        6.32765  -0.04567   0.00000  -0.12576  -0.12000   6.20766
    Y8        0.00000   0.00000   0.00000   0.00000   0.00000   0.00000
    Z8        2.40573  -0.00052   0.00000   0.01553   0.01754   2.42327
    X9        3.85830  -0.02218   0.00000  -0.07232  -0.06545   3.79285
    Y9        0.00000   0.00000   0.00000   0.00000   0.00000   0.00000
    Z9        6.68277  -0.03926   0.00000  -0.09237  -0.08971   6.59306
   X10       -1.08040   0.02192   0.00000   0.03876   0.04563  -1.03477
   Y10        0.00000   0.00000   0.00000   0.00000   0.00000   0.00000
   Z10        6.68277  -0.03952   0.00000  -0.07443  -0.07050   6.61227
   X11       -3.54976   0.04470   0.00000   0.09568   0.10144  -3.44831
   Y11        0.00000   0.00000   0.00000   0.00000   0.00000   0.00000
   Z11        2.40573   0.00045   0.00000   0.01493   0.01950   2.42523
         Item               Value     Threshold  Converged?
 Maximum Force            0.089822     0.000450     NO 
 RMS     Force            0.028441     0.000300     NO 
 Maximum Displacement     0.124187     0.001800     NO 
 RMS     Displacement     0.052120     0.001200     NO 
 Predicted change in Energy=-3.124388D-02
 GradGradGradGradGradGradGradGradGradGradGradGradGradGradGradGradGradGrad

 1\1\GINC-OUTBACK\Force\UHF\3-21G\C6H5(2)\HUGH\28-Oct-2009\0\\# HF/3-21
 G guess=read force\\Generated by ASE Gaussian driver\\0,2\C,0.,0.,0.\C
 ,1.47,0.,0.\C,2.205,0.,1.2730578\C,1.47,0.,2.54611455\C,0.,0.,2.546114
 55\C,-0.735,0.,1.2730578\H,2.205,0.,-1.2730578\H,3.34845,0.,1.2730578\
 H,2.041725,0.,3.53637165\H,-0.571725,0.,3.53637165\H,-1.87845,0.,1.273
 0578\\Version=AM64L-G03RevD.01\State=2-A'\HF=-228.6886546\S2=1.913232\
 S2-1=0.\S2A=2.290212\RMSD=7.781e-09\RMSF=2.844e-02\Thermal=0.\Dipole=0
 .1071482,0.,0.3627588\PG=CS [SG(C6H5)]\\@


 SCIENCE AT ITS BEST PROVIDES US WITH BETTER QUESTIONS, 
 NOT ABSOLUTE ANSWERS

                                    -- NORMAN COUSINS, 1976
 Job cpu time:  0 days  0 hours  0 minutes  6.5 seconds.
 File lengths (MBytes):  RWF=     17 Int=      0 D2E=      0 Chk=      7 Scr=      1
 Normal termination of Gaussian 03 at Wed Oct 28 18:20:44 2009.
