 Entering Gaussian System, Link 0=g03
 Input=gaussjob.com
 Output=gaussjob.log
 Initial command:
 /usr/local/g03/l1.exe /scratch/Gau-29311.inp -scrdir=/scratch/
 Entering Link 1 = /usr/local/g03/l1.exe PID=     29312.
  
 Copyright (c) 1988,1990,1992,1993,1995,1998,2003,2004, Gaussian, Inc.
                  All Rights Reserved.
  
 This is the Gaussian(R) 03 program.  It is based on the
 the Gaussian(R) 98 system (copyright 1998, Gaussian, Inc.),
 the Gaussian(R) 94 system (copyright 1995, Gaussian, Inc.),
 the Gaussian 92(TM) system (copyright 1992, Gaussian, Inc.),
 the Gaussian 90(TM) system (copyright 1990, Gaussian, Inc.),
 the Gaussian 88(TM) system (copyright 1988, Gaussian, Inc.),
 the Gaussian 86(TM) system (copyright 1986, Carnegie Mellon
 University), and the Gaussian 82(TM) system (copyright 1983,
 Carnegie Mellon University). Gaussian is a federally registered
 trademark of Gaussian, Inc.
  
 This software contains proprietary and confidential information,
 including trade secrets, belonging to Gaussian, Inc.
  
 This software is provided under written license and may be
 used, copied, transmitted, or stored only in accord with that
 written license.
  
 The following legend is applicable only to US Government
 contracts under FAR:
  
                    RESTRICTED RIGHTS LEGEND
  
 Use, reproduction and disclosure by the US Government is
 subject to restrictions as set forth in subparagraphs (a)
 and (c) of the Commercial Computer Software - Restricted
 Rights clause in FAR 52.227-19.
  
 Gaussian, Inc.
 340 Quinnipiac St., Bldg. 40, Wallingford CT 06492
  
  
 ---------------------------------------------------------------
 Warning -- This program may not be used in any manner that
 competes with the business of Gaussian, Inc. or will provide
 assistance to any competitor of Gaussian, Inc.  The licensee
 of this program is prohibited from giving any competitor of
 Gaussian, Inc. access to this program.  By using this program,
 the user acknowledges that Gaussian, Inc. is engaged in the
 business of creating and licensing software in the field of
 computational chemistry and represents and warrants to the
 licensee that it is not a competitor of Gaussian, Inc. and that
 it will not use this program in any manner prohibited above.
 ---------------------------------------------------------------
  

 Cite this work as:
 Gaussian 03, Revision D.01,
 M. J. Frisch, G. W. Trucks, H. B. Schlegel, G. E. Scuseria, 
 M. A. Robb, J. R. Cheeseman, J. A. Montgomery, Jr., T. Vreven, 
 K. N. Kudin, J. C. Burant, J. M. Millam, S. S. Iyengar, J. Tomasi, 
 V. Barone, B. Mennucci, M. Cossi, G. Scalmani, N. Rega, 
 G. A. Petersson, H. Nakatsuji, M. Hada, M. Ehara, K. Toyota, 
 R. Fukuda, J. Hasegawa, M. Ishida, T. Nakajima, Y. Honda, O. Kitao, 
 H. Nakai, M. Klene, X. Li, J. E. Knox, H. P. Hratchian, J. B. Cross, 
 V. Bakken, C. Adamo, J. Jaramillo, R. Gomperts, R. E. Stratmann, 
 O. Yazyev, A. J. Austin, R. Cammi, C. Pomelli, J. W. Ochterski, 
 P. Y. Ayala, K. Morokuma, G. A. Voth, P. Salvador, J. J. Dannenberg, 
 V. G. Zakrzewski, S. Dapprich, A. D. Daniels, M. C. Strain, 
 O. Farkas, D. K. Malick, A. D. Rabuck, K. Raghavachari, 
 J. B. Foresman, J. V. Ortiz, Q. Cui, A. G. Baboul, S. Clifford, 
 J. Cioslowski, B. B. Stefanov, G. Liu, A. Liashenko, P. Piskorz, 
 I. Komaromi, R. L. Martin, D. J. Fox, T. Keith, M. A. Al-Laham, 
 C. Y. Peng, A. Nanayakkara, M. Challacombe, P. M. W. Gill, 
 B. Johnson, W. Chen, M. W. Wong, C. Gonzalez, and J. A. Pople, 
 Gaussian, Inc., Wallingford CT, 2004.
 
 ******************************************
 Gaussian 03:  AM64L-G03RevD.01 13-Oct-2005
                 5-Nov-2009 
 ******************************************
 %chk=gaussjob.chk
 %nprocs=1
 Will use up to    1 processors via shared memory.
 ----------------
 # HF/3-21G force
 ----------------
 1/10=7,30=1,38=1/1,3;
 2/17=6,18=5,40=1/2;
 3/5=5,11=9,16=1,25=1,30=1/1,2,3;
 4//1;
 5/5=2,38=5/2;
 6/7=2,8=2,9=2,10=2,28=1/1;
 7/29=1/1,2,3,16;
 1/10=7,30=1/3;
 99//99;
 --------------------------------
 Generated by ASE Gaussian driver
 --------------------------------
 Symbolic Z-matrix:
 Charge = -1 Multiplicity = 2
 H                     0.        0.        0. 
 O                     1.09      0.        0. 
 H                     1.63665   0.        0.94302 
 

 GradGradGradGradGradGradGradGradGradGradGradGradGradGradGradGradGradGrad
 Berny optimization.
 Initialization pass.
 Trust Radius=3.00D-01 FncErr=1.00D-07 GrdErr=1.00D-07
 Number of steps in this run=   2 maximum allowed number of steps=   2.
 GradGradGradGradGradGradGradGradGradGradGradGradGradGradGradGradGradGrad

                          Input orientation:                          
 ---------------------------------------------------------------------
 Center     Atomic     Atomic              Coordinates (Angstroms)
 Number     Number      Type              X           Y           Z
 ---------------------------------------------------------------------
    1          1             0        0.000000    0.000000    0.000000
    2          8             0        1.090000    0.000000    0.000000
    3          1             0        1.636647    0.000000    0.943015
 ---------------------------------------------------------------------
                    Distance matrix (angstroms):
                    1          2          3
     1  H    0.000000
     2  O    1.090000   0.000000
     3  H    1.888886   1.090000   0.000000
 Stoichiometry    H2O(1-,2)
 Framework group  C2V[C2(O),SGV(H2)]
 Deg. of freedom     2
 Full point group                 C2V
 Largest Abelian subgroup         C2V     NOp   4
 Largest concise Abelian subgroup C2      NOp   2
                         Standard orientation:                         
 ---------------------------------------------------------------------
 Center     Atomic     Atomic              Coordinates (Angstroms)
 Number     Number      Type              X           Y           Z
 ---------------------------------------------------------------------
    1          1             0        0.000000    0.944443   -0.435341
    2          8             0        0.000000    0.000000    0.108835
    3          1             0        0.000000   -0.944443   -0.435341
 ---------------------------------------------------------------------
 Rotational constants (GHZ):    953.3857418    281.0933785    217.0878509
 Standard basis: 3-21G (6D, 7F)
 There are     7 symmetry adapted basis functions of A1  symmetry.
 There are     0 symmetry adapted basis functions of A2  symmetry.
 There are     2 symmetry adapted basis functions of B1  symmetry.
 There are     4 symmetry adapted basis functions of B2  symmetry.
 Integral buffers will be    131072 words long.
 Raffenetti 2 integral format.
 Two-electron integral symmetry is turned on.
    13 basis functions,    21 primitive gaussians,    13 cartesian basis functions
     6 alpha electrons        5 beta electrons
       nuclear repulsion energy         8.0478919255 Hartrees.
 NAtoms=    3 NActive=    3 NUniq=    2 SFac= 1.69D+00 NAtFMM=   80 NAOKFM=F Big=F
 One-electron integrals computed using PRISM.
 NBasis=    13 RedAO= T  NBF=     7     0     2     4
 NBsUse=    13 1.00D-06 NBFU=     7     0     2     4
 Harris functional with IExCor=  205 diagonalized for initial guess.
 ExpMin= 1.83D-01 ExpMax= 3.22D+02 ExpMxC= 3.22D+02 IAcc=1 IRadAn=         1 AccDes= 1.00D-06
 HarFok:  IExCor= 205 AccDes= 1.00D-06 IRadAn=         1 IDoV=1
 ScaDFX=  1.000000  1.000000  1.000000  1.000000
 Initial guess orbital symmetries:
 Alpha Orbitals:
       Occupied  (A1) (A1) (B2) (A1) (B1) (A1)
       Virtual   (B2) (A1) (B2) (B1) (A1) (B2) (A1)
 Beta  Orbitals:
       Occupied  (A1) (A1) (B2) (A1) (B1)
       Virtual   (A1) (B2) (A1) (B2) (B1) (A1) (B2) (A1)
 The electronic state of the initial guess is 2-A1.
 <S**2> of initial guess= 0.7500
 Requested convergence on RMS density matrix=1.00D-08 within 128 cycles.
 Requested convergence on MAX density matrix=1.00D-06.
 Requested convergence on             energy=1.00D-06.
 No special actions if energy rises.
 Keep R1 and R2 integrals in memory in canonical form, NReq=      828683.
 SCF Done:  E(UHF) =  -75.3640599758     A.U. after   13 cycles
             Convg  =    0.1155D-08             -V/T =  1.9939
             S**2   =   0.7720
 Annihilation of the first spin contaminant:
 S**2 before annihilation     0.7720,   after     0.7501

 **********************************************************************

            Population analysis using the SCF density.

 **********************************************************************

 Orbital symmetries:
 Alpha Orbitals:
       Occupied  (A1) (A1) (B2) (A1) (B1) (A1)
       Virtual   (B2) (A1) (B2) (B1) (A1) (B2) (A1)
 Beta  Orbitals:
       Occupied  (A1) (A1) (B2) (A1) (B1)
       Virtual   (A1) (B2) (A1) (B2) (B1) (A1) (B2) (A1)
 The electronic state is 2-A1.
 Alpha  occ. eigenvalues --  -20.05084  -0.92297  -0.28020  -0.18101  -0.11721
 Alpha  occ. eigenvalues --    0.17258
 Alpha virt. eigenvalues --    0.60411   1.45192   1.55593   2.13166   2.17958
 Alpha virt. eigenvalues --    2.44543   3.33961
  Beta  occ. eigenvalues --  -20.03149  -0.86728  -0.25951  -0.12185  -0.09671
  Beta virt. eigenvalues --    0.57941   0.66747   1.51413   1.58732   2.15200
  Beta virt. eigenvalues --    2.22446   2.44554   3.38750
          Condensed to atoms (all electrons):
              1          2          3
     1  H    1.245266  -0.250841   0.153102
     2  O   -0.250841   9.206630  -0.250841
     3  H    0.153102  -0.250841   1.245266
 Mulliken atomic charges:
              1
     1  H   -0.147526
     2  O   -0.704947
     3  H   -0.147526
 Sum of Mulliken charges=  -1.00000
 Atomic charges with hydrogens summed into heavy atoms:
              1
     1  H    0.000000
     2  O   -1.000000
     3  H    0.000000
 Sum of Mulliken charges=  -1.00000
          Atomic-Atomic Spin Densities.
              1          2          3
     1  H    0.816298  -0.499211   0.169734
     2  O   -0.499211   1.024778  -0.499211
     3  H    0.169734  -0.499211   0.816298
 Mulliken atomic spin densities:
              1
     1  H    0.486822
     2  O    0.026357
     3  H    0.486822
 Sum of Mulliken spin densities=   1.00000
 Electronic spatial extent (au):  <R**2>=    30.0604
 Charge=    -1.0000 electrons
 Dipole moment (field-independent basis, Debye):
    X=     0.0000    Y=     0.0000    Z=     0.2511  Tot=     0.2511
 Quadrupole moment (field-independent basis, Debye-Ang):
   XX=    -9.1263   YY=   -10.7864   ZZ=    -9.6751
   XY=     0.0000   XZ=     0.0000   YZ=     0.0000
 Traceless Quadrupole moment (field-independent basis, Debye-Ang):
   XX=     0.7363   YY=    -0.9238   ZZ=     0.1875
   XY=     0.0000   XZ=     0.0000   YZ=     0.0000
 Octapole moment (field-independent basis, Debye-Ang**2):
  XXX=     0.0000  YYY=     0.0000  ZZZ=     2.7212  XYY=     0.0000
  XXY=     0.0000  XXZ=     0.7691  XZZ=     0.0000  YZZ=     0.0000
  YYZ=     2.0212  XYZ=     0.0000
 Hexadecapole moment (field-independent basis, Debye-Ang**3):
 XXXX=    -7.0850 YYYY=   -27.3226 ZZZZ=   -11.8670 XXXY=     0.0000
 XXXZ=     0.0000 YYYX=     0.0000 YYYZ=     0.0000 ZZZX=     0.0000
 ZZZY=     0.0000 XXYY=    -5.3331 XXZZ=    -3.1359 YYZZ=    -6.5640
 XXYZ=     0.0000 YYXZ=     0.0000 ZZXY=     0.0000
 N-N= 8.047891925508D+00 E-N=-1.998914909470D+02  KE= 7.582407137093D+01
 Symmetry A1   KE= 6.861116108219D+01
 Symmetry A2   KE= 0.000000000000D+00
 Symmetry B1   KE= 4.530408932262D+00
 Symmetry B2   KE= 2.682501356479D+00
                          Isotropic Fermi Contact Couplings
        Atom                 a.u.       MegaHertz       Gauss      10(-4) cm-1
     1  H(1)               0.04052     181.09835      64.62039      60.40791
     2  O(17)              1.20036    -727.65194    -259.64429    -242.71856
     3  H(1)               0.04052     181.09835      64.62039      60.40791
 --------------------------------------------------------
       Center         ----  Spin Dipole Couplings  ----
                      3XX-RR        3YY-RR        3ZZ-RR
 --------------------------------------------------------
     1   Atom       -0.018852      0.044330     -0.025478
     2   Atom       -0.135316     -0.923682      1.058999
     3   Atom       -0.018852      0.044330     -0.025478
 --------------------------------------------------------
                        XY            XZ            YZ
 --------------------------------------------------------
     1   Atom        0.000000      0.000000      0.002358
     2   Atom        0.000000      0.000000      0.000000
     3   Atom        0.000000      0.000000     -0.002358
 --------------------------------------------------------


 ---------------------------------------------------------------------------------
              Anisotropic Spin Dipole Couplings in Principal Axis System
 ---------------------------------------------------------------------------------

       Atom             a.u.   MegaHertz   Gauss  10(-4) cm-1        Axes

              Baa    -0.0256   -13.636    -4.866    -4.549  0.0000 -0.0337  0.9994
     1 H(1)   Bbb    -0.0189   -10.058    -3.589    -3.355  1.0000  0.0000  0.0000
              Bcc     0.0444    23.695     8.455     7.904  0.0000  0.9994  0.0337
 
              Baa    -0.9237    66.837    23.849    22.294  0.0000  1.0000  0.0000
     2 O(17)  Bbb    -0.1353     9.791     3.494     3.266  1.0000  0.0000  0.0000
              Bcc     1.0590   -76.628   -27.343   -25.560  0.0000  0.0000  1.0000
 
              Baa    -0.0256   -13.636    -4.866    -4.549  0.0000  0.0337  0.9994
     3 H(1)   Bbb    -0.0189   -10.058    -3.589    -3.355  1.0000  0.0000  0.0000
              Bcc     0.0444    23.695     8.455     7.904  0.0000  0.9994 -0.0337
 

 ---------------------------------------------------------------------------------

 ***** Axes restored to original set *****
 -------------------------------------------------------------------
 Center     Atomic                   Forces (Hartrees/Bohr)
 Number     Number              X              Y              Z
 -------------------------------------------------------------------
    1          1          -0.031611298    0.000000000    0.002497845
    2          8           0.017918907    0.000000000   -0.031099100
    3          1           0.013692391    0.000000000    0.028601255
 -------------------------------------------------------------------
 Cartesian Forces:  Max     0.031611298 RMS     0.019146418
 ------------------------------------------------------------------------
           Internal Coordinate Forces (Hartree/Bohr or radian)
 Cent Atom N1     Length/X     N2     Alpha/Y      N3      Beta/Z       J
 ------------------------------------------------------------------------
   1  H        -0.031611(   1)      0.000000(   4)      0.002498(   7)
   2  O         0.017919(   2)      0.000000(   5)     -0.031099(   8)
   3  H         0.013692(   3)      0.000000(   6)      0.028601(   9)
 ------------------------------------------------------------------------
 Internal  Forces:  Max     0.031611298 RMS     0.019146418

 GradGradGradGradGradGradGradGradGradGradGradGradGradGradGradGradGradGrad
 Berny optimization.
 Search for a local minimum.
 Step number   1 out of a maximum of   2
 All quantities printed in internal units (Hartrees-Bohrs-Radians)
 Second derivative matrix not updated -- first step.
 The second derivative matrix:
                          X1        Y1        Z1        X2        Y2
           X1           0.34813
           Y1           0.00000   1.00000
           Z1           0.00000   0.00000   0.03771
           X2          -0.34813   0.00000   0.03263   0.46391
           Y2           0.00000   0.00000   0.00000   0.00000   1.00000
           Z2           0.00000   0.00000  -0.05662   0.10206   0.00000
           X3           0.00000   0.00000  -0.03263  -0.11578   0.00000
           Y3           0.00000   0.00000   0.00000   0.00000   0.00000
           Z3           0.00000   0.00000   0.01891  -0.13468   0.00000
                          Z2        X3        Y3        Z3
           Z2           0.34559
           X3          -0.10206   0.11578
           Y3           0.00000   0.00000   1.00000
           Z3          -0.28897   0.13468   0.00000   0.27005
     Eigenvalues ---    0.12509   0.48937   0.68692
 Angle between quadratic step and forces=  22.71 degrees.
 Linear search not attempted -- first point.
 TrRot=  0.009330  0.000000 -0.016193  0.000000  0.000000  0.000000
 Variable       Old X    -DE/DX   Delta X   Delta X   Delta X     New X
                                 (Linear)    (Quad)   (Total)
    X1        0.00000  -0.03161   0.00000  -0.07550  -0.06617  -0.06617
    Y1        0.00000   0.00000   0.00000   0.00000   0.00000   0.00000
    Z1        0.00000   0.00250   0.00000   0.00655  -0.00964  -0.00964
    X2        2.05980   0.01792   0.00000   0.01531   0.02464   2.08444
    Y2        0.00000   0.00000   0.00000   0.00000   0.00000   0.00000
    Z2        0.00000  -0.03110   0.00000  -0.02657  -0.04276  -0.04276
    X3        3.09281   0.01369   0.00000   0.03220   0.04153   3.13434
    Y3        0.00000   0.00000   0.00000   0.00000   0.00000   0.00000
    Z3        1.78204   0.02860   0.00000   0.06860   0.05241   1.83445
         Item               Value     Threshold  Converged?
 Maximum Force            0.031611     0.000450     NO 
 RMS     Force            0.019146     0.000300     NO 
 Maximum Displacement     0.066165     0.001800     NO 
 RMS     Displacement     0.035555     0.001200     NO 
 Predicted change in Energy=-2.953159D-03
 GradGradGradGradGradGradGradGradGradGradGradGradGradGradGradGradGradGrad

 1\1\GINC-OUTBACK\Force\UHF\3-21G\H2O1(1-,2)\HUGH\05-Nov-2009\0\\# HF/3
 -21G force\\Generated by ASE Gaussian driver\\-1,2\H,0.,0.,0.\O,1.09,0
 .,0.\H,1.6366467035,0.,0.9430150484\\Version=AM64L-G03RevD.01\State=2-
 A1\HF=-75.36406\S2=0.771958\S2-1=0.\S2A=0.750067\RMSD=1.155e-09\RMSF=1
 .915e-02\Thermal=0.\Dipole=0.049318,0.,-0.0855938\PG=C02V [C2(O1),SGV(
 H2)]\\@


 "ANNA, YOU MUSN'T SPEAK OF OXIDIZED MURIATIC ACID
 ANYMORE, FROM NOW ON YOU MUST SAY CHLORINE."
   -- JENS JACOB BERZELIUS, IN 1820, TO HIS COOK, WHO HAD
 COMPLAINED OF THE SMELL OF THE FLASK SHE WAS CLEANING.
 Job cpu time:  0 days  0 hours  0 minutes  5.6 seconds.
 File lengths (MBytes):  RWF=     13 Int=      0 D2E=      0 Chk=      7 Scr=      1
 Normal termination of Gaussian 03 at Thu Nov  5 15:04:47 2009.
