3
Bead 0: Energy = -1.00336898873
H 0.000000	0.000000	0.000000
O 0.000000	0.000000	0.000000
H nan	nan	nan
3
Bead 1: Energy = -0.658175904762
H 0.000000	0.000000	0.000000
O 0.286639	0.000000	0.000000
H 0.000009	0.000000	0.002281
3
Bead 2: Energy = -0.410829880785
H 0.000000	0.000000	0.000000
O 0.626345	0.000000	0.000000
H 0.000074	0.000000	0.009655
3
Bead 3: Energy = -0.466646220464
H 0.000000	0.000000	0.000000
O 0.583686	0.000000	0.000000
H 0.000189	0.000000	0.014866
3
Bead 4: Energy = -0.280476751962
H 0.000000	0.000000	0.000000
O 0.702940	0.000000	0.000000
H 0.000454	0.000000	0.025252
3
Bead 5: Energy = -0.0784693328141
H 0.000000	0.000000	0.000000
O 1.045430	0.000000	0.000000
H 0.000974	0.000000	0.045126
3
Bead 6: Energy = -0.484591851625
H 0.000000	0.000000	0.000000
O 1.606670	0.000000	0.000000
H 0.001943	0.000000	0.079002
3
Bead 7: Energy = -0.749087666776
H 0.000000	0.000000	0.000000
O 2.051511	0.000000	0.000000
H 0.001892	0.000000	0.088089
3
Bead 8: Energy = -0.453189716508
H 0.000000	0.000000	0.000000
O 2.559408	0.000000	0.000000
H 0.002800	0.000000	0.119688
3
Bead 9: Energy = -0.820000895403
H 0.000000	0.000000	0.000000
O 3.000000	0.000000	0.000000
H 0.004111	0.000000	0.157008
