14
Bead 0: Energy = -156.431333055
C 0.000000	0.000000	0.000000
C 1.541527	0.000000	0.000000
C 2.147866	0.000000	1.419070
C 1.879910	-1.306477	2.192078
H 1.748439	0.841594	1.977148
H 3.220734	0.147623	1.342899
H 1.905515	-0.867180	-0.542982
H 1.891363	0.879586	-0.531559
H -0.378587	0.853411	0.553174
H -0.383441	0.057912	-1.012986
H -0.394375	-0.901102	0.453680
H 2.369751	-1.286855	3.159644
H 0.820075	-1.455658	2.358980
H 2.260625	-2.158707	1.638562
14
Bead 1: Energy = -156.355334253
C 0.000000	0.000000	0.000000
C 1.597964	0.000000	0.000000
C 2.203904	0.000000	1.418325
C 1.547740	-1.093495	2.381212
H 1.611682	0.656659	2.061355
H 3.272379	0.104737	1.340863
H 1.416687	-1.031904	-0.312607
H 2.155091	0.683852	-0.616899
H -0.382745	0.865094	0.542036
H -0.383011	0.041482	-1.012690
H -0.390638	-0.891693	0.466267
H 2.028678	-1.086848	3.352091
H 0.496039	-0.901786	2.530489
H 1.656508	-2.091818	1.956719
14
Bead 2: Energy = -156.108498557
C 0.000000	0.000000	0.000000
C 1.787058	0.000000	0.000000
C 2.391813	0.000000	1.415644
C 1.345794	-0.796828	2.625810
H 1.680191	0.407983	2.100963
H 3.450497	0.062175	1.337823
H 1.088387	-0.804666	-0.082873
H 2.487189	0.432504	-0.673428
H -0.384243	0.870614	0.527029
H -0.381390	0.025002	-1.008992
H -0.389224	-0.887309	0.481497
H 1.816758	-0.796108	3.596549
H 0.396066	-0.286371	2.715760
H 1.152632	-1.830109	2.345863
14
Bead 3: Energy = -155.765777504
C 0.000000	0.000000	0.000000
C 1.948779	0.000000	0.000000
C 2.560526	0.000000	1.431982
C 1.236478	-0.300075	2.830046
H 1.856158	0.126161	2.076435
H 3.624963	0.020378	1.353082
H 1.027312	-0.275263	0.050088
H 2.731746	0.149003	-0.710230
H -0.384663	0.873511	0.510380
H -0.381260	0.008488	-1.008891
H -0.386914	-0.880646	0.495761
H 1.702477	-0.300364	3.802742
H 0.482091	0.475706	2.821416
H 0.743793	-1.254249	2.694804
14
Bead 4: Energy = -155.755303384
C 0.000000	0.000000	0.000000
C 1.949882	0.000000	0.000000
C 2.561797	0.000000	1.432477
C 1.234670	0.285276	2.832249
H 1.857765	-0.117336	2.076073
H 3.626264	-0.020500	1.353587
H 1.025841	0.259037	0.051858
H 2.734029	-0.140428	-0.710721
H -0.386784	0.879944	0.496450
H -0.381258	-0.007545	-1.008907
H -0.384694	-0.874029	0.509583
H 1.700606	0.285779	3.804980
H 0.734652	1.236144	2.700258
H 0.486471	-0.496039	2.820883
14
Bead 5: Energy = -156.100411851
C 0.000000	0.000000	0.000000
C 1.796452	0.000000	0.000000
C 2.401053	0.000000	1.415600
C 1.344000	0.790366	2.634283
H 1.687466	-0.399277	2.100999
H 3.459517	-0.062421	1.337835
H 1.087249	0.793346	-0.077739
H 2.499493	-0.425481	-0.674529
H -0.389512	0.887602	0.482670
H -0.381345	-0.024111	-1.008937
H -0.384354	-0.871352	0.526417
H 1.814768	0.789933	3.605027
H 1.143890	1.823474	2.357264
H 0.396949	0.272852	2.722629
14
Bead 6: Energy = -156.352728128
C 0.000000	0.000000	0.000000
C 1.600423	0.000000	0.000000
C 2.205814	0.000000	1.417537
C 1.544495	1.091356	2.383449
H 1.611061	-0.650955	2.060913
H 3.274051	-0.105434	1.340144
H 1.410246	1.029693	-0.308158
H 2.160442	-0.680242	-0.617968
H -0.390698	0.891498	0.466977
H -0.382829	-0.040749	-1.012306
H -0.382649	-0.865404	0.541355
H 2.025128	1.085027	3.353981
H 1.649671	2.090601	1.960470
H 0.493321	0.895544	2.532327
14
Bead 7: Energy = -156.431333077
C 0.000000	0.000000	0.000000
C 1.541544	0.000000	0.000000
C 2.147601	0.000000	1.419164
C 1.881170	1.307377	2.191263
H 1.746998	-0.840767	1.977640
H 3.220273	-0.148991	1.343164
H 1.905639	0.867167	-0.542885
H 1.891362	-0.879636	-0.531478
H -0.394386	0.900866	0.454094
H -0.383397	-0.057451	-1.013002
H -0.378491	-0.853693	0.552765
H 2.371004	1.287863	3.158811
H 2.262894	2.158723	1.637102
H 0.821549	1.457929	2.358106
