3
Bead 0: Energy = -1.00336898873
H 0.000000	0.000000	0.000000
O 0.000000	0.000000	0.000000
H nan	nan	nan
3
Bead 1: Energy = -0.745775790945
H 0.000000	0.000000	0.000000
O 0.147776	0.000000	0.000000
H 0.000004	0.000000	0.001148
3
Bead 2: Energy = -0.426514317362
H 0.000000	0.000000	0.000000
O 0.510239	0.000000	0.000000
H 0.000059	0.000000	0.007728
3
Bead 3: Energy = -0.437357747208
H 0.000000	0.000000	0.000000
O 0.653171	0.000000	0.000000
H 0.000180	0.000000	0.015343
3
Bead 4: Energy = -0.462900209906
H 0.000000	0.000000	0.000000
O 0.622381	0.000000	0.000000
H 0.000349	0.000000	0.020854
3
Bead 5: Energy = -0.192621978853
H 0.000000	0.000000	0.000000
O 0.924468	0.000000	0.000000
H 0.000767	0.000000	0.037646
3
Bead 6: Energy = -0.0953582702402
H 0.000000	0.000000	0.000000
O 1.418579	0.000000	0.000000
H 0.001550	0.000000	0.066290
3
Bead 7: Energy = -0.317746966161
H 0.000000	0.000000	0.000000
O 1.985412	0.000000	0.000000
H 0.002033	0.000000	0.089822
3
Bead 8: Energy = -0.697799072781
H 0.000000	0.000000	0.000000
O 2.548362	0.000000	0.000000
H 0.002731	0.000000	0.117956
3
Bead 9: Energy = -0.820000895403
H 0.000000	0.000000	0.000000
O 3.000000	0.000000	0.000000
H 0.004111	0.000000	0.157008
