8
Bead 0: Energy = -78.7926368276
H 0.000000	0.000000	0.000000
C 1.070000	0.000000	0.000000
C 1.583328	0.000000	1.451928
H 2.653326	0.001761	1.451928
H 1.225220	0.872771	1.956834
H 1.227952	-0.874444	1.955868
H 1.426671	0.873653	-0.504398
H 1.426671	-0.873653	-0.504398
8
Bead 1: Energy = -78.7916936838
H 0.000000	0.000000	0.000000
C 1.070000	0.000000	0.000000
C 1.583328	0.000000	1.451928
H 2.611560	-0.295668	1.466695
H 1.488953	0.983121	1.863591
H 1.006015	-0.687324	2.034334
H 1.426671	0.873653	-0.504398
H 1.426671	-0.873653	-0.504398
8
Bead 2: Energy = -78.789548279
H 0.000000	0.000000	0.000000
C 1.070000	0.000000	0.000000
C 1.583328	0.000000	1.451928
H 2.488995	-0.566826	1.510028
H 1.771635	1.006116	1.763649
H 0.845939	-0.439132	2.090928
H 1.426671	0.873653	-0.504398
H 1.426671	-0.873653	-0.504398
8
Bead 3: Energy = -78.7878127923
H 0.000000	0.000000	0.000000
C 1.070000	0.000000	0.000000
C 1.583328	0.000000	1.451928
H 2.296521	-0.787618	1.578077
H 2.048149	0.939714	1.665888
H 0.761947	-0.151922	2.120624
H 1.426671	0.873653	-0.504398
H 1.426671	-0.873653	-0.504398
8
Bead 4: Energy = -78.7878015719
H 0.000000	0.000000	0.000000
C 1.070000	0.000000	0.000000
C 1.583328	0.000000	1.451928
H 2.051240	-0.938427	1.664796
H 2.293925	0.789814	1.578994
H 0.761502	0.148788	2.120781
H 1.426671	0.873653	-0.504398
H 1.426671	-0.873653	-0.504398
8
Bead 5: Energy = -78.7895231949
H 0.000000	0.000000	0.000000
C 1.070000	0.000000	0.000000
C 1.583328	0.000000	1.451928
H 1.774946	-1.005853	1.762479
H 2.487125	0.569735	1.510689
H 0.844643	0.436277	2.091387
H 1.426671	0.873653	-0.504398
H 1.426671	-0.873653	-0.504398
8
Bead 6: Energy = -78.7916736301
H 0.000000	0.000000	0.000000
C 1.070000	0.000000	0.000000
C 1.583328	0.000000	1.451928
H 1.492190	-0.983904	1.862447
H 2.610582	0.299033	1.467041
H 1.003983	0.685001	2.035052
H 1.426671	0.873653	-0.504398
H 1.426671	-0.873653	-0.504398
8
Bead 7: Energy = -78.79263682
H 0.000000	0.000000	0.000000
C 1.070000	0.000000	0.000000
C 1.583328	0.000000	1.451928
H 1.228096	-0.874532	1.955817
H 2.653326	0.001761	1.451928
H 1.225364	0.872859	1.956783
H 1.426671	0.873653	-0.504398
H 1.426671	-0.873653	-0.504398
