3
Bead 0: Energy = -1.00336898873
H 0.000000	0.000000	0.000000
O 0.000000	0.000000	0.000000
H nan	nan	nan
3
Bead 1: Energy = -0.923564569852
H 0.000000	0.000000	0.000000
O 0.373253	0.000000	0.000000
H 0.000018	0.000000	0.003640
3
Bead 2: Energy = -0.518600015793
H 0.000000	0.000000	0.000000
O 0.441982	0.000000	0.000000
H 0.000037	0.000000	0.005695
3
Bead 3: Energy = -0.415822066062
H 0.000000	0.000000	0.000000
O 0.578251	0.000000	0.000000
H 0.000202	0.000000	0.015273
3
Bead 4: Energy = -0.470082550465
H 0.000000	0.000000	0.000000
O 0.837434	0.000000	0.000000
H 0.000683	0.000000	0.033812
3
Bead 5: Energy = -0.262192762965
H 0.000000	0.000000	0.000000
O 1.513063	0.000000	0.000000
H 0.001882	0.000000	0.075437
3
Bead 6: Energy = -0.0688042327236
H 0.000000	0.000000	0.000000
O 2.241166	0.000000	0.000000
H 0.002004	0.000000	0.094748
3
Bead 7: Energy = -0.288504269883
H 0.000000	0.000000	0.000000
O 2.480141	0.000000	0.000000
H 0.003217	0.000000	0.126275
3
Bead 8: Energy = -0.690663105393
H 0.000000	0.000000	0.000000
O 3.129688	0.000000	0.000000
H 0.002552	0.000000	0.126359
3
Bead 9: Energy = -0.820000895403
H 0.000000	0.000000	0.000000
O 3.000000	0.000000	0.000000
H 0.004111	0.000000	0.157008
