8
Bead 0: Energy = -78.7926368276
H 0.000000	0.000000	0.000000
C 1.070000	0.000000	0.000000
C 1.583328	0.000000	1.451928
H 2.653326	0.001761	1.451928
H 1.225220	0.872771	1.956834
H 1.227952	-0.874444	1.955868
H 1.426671	0.873653	-0.504398
H 1.426671	-0.873653	-0.504398
8
Bead 1: Energy = -78.7925680788
H 0.000000	0.000000	0.000000
C 1.082943	0.000000	0.000000
C 1.601607	0.000000	1.467003
H 2.642273	-0.299243	1.481949
H 1.506093	0.995016	1.883653
H 1.017316	-0.695639	2.056460
H 1.443925	0.884219	-0.510505
H 1.443924	-0.884220	-0.510504
8
Bead 2: Energy = -78.7905440451
H 0.000000	0.000000	0.000000
C 1.082370	0.000000	0.000000
C 1.603566	0.000000	1.474161
H 2.519701	-0.573376	1.532933
H 1.794053	1.017751	1.789492
H 0.857658	-0.444210	2.120556
H 1.443161	0.883752	-0.510236
H 1.443159	-0.883753	-0.510235
8
Bead 3: Energy = -78.7889561294
H 0.000000	0.000000	0.000000
C 1.081916	0.000000	0.000000
C 1.605122	0.000000	1.479845
H 2.326256	-0.796385	1.607399
H 2.075123	0.950181	1.696191
H 0.774601	-0.153614	2.155996
H 1.442554	0.883380	-0.510022
H 1.442553	-0.883382	-0.510022
8
Bead 4: Energy = -78.7889460218
H 0.000000	0.000000	0.000000
C 1.081913	0.000000	0.000000
C 1.605132	0.000000	1.479881
H 2.078254	-0.948870	1.695121
H 2.323646	0.798609	1.608364
H 0.774164	0.150444	2.156189
H 1.442550	0.883378	-0.510020
H 1.442550	-0.883378	-0.510020
8
Bead 5: Energy = -78.7905207549
H 0.000000	0.000000	0.000000
C 1.082364	0.000000	0.000000
C 1.603589	0.000000	1.474244
H 1.797424	-1.017470	1.788385
H 2.517835	0.576319	1.533684
H 0.856375	0.441318	2.121099
H 1.443151	0.883748	-0.510232
H 1.443153	-0.883747	-0.510233
8
Bead 6: Energy = -78.7925488341
H 0.000000	0.000000	0.000000
C 1.082938	0.000000	0.000000
C 1.601626	0.000000	1.467070
H 1.509389	-0.995796	1.882556
H 2.641307	0.302649	1.482366
H 1.015281	0.693283	2.057251
H 1.443917	0.884216	-0.510502
H 1.443919	-0.884215	-0.510502
8
Bead 7: Energy = -78.79263682
H 0.000000	0.000000	0.000000
C 1.070000	0.000000	0.000000
C 1.583328	0.000000	1.451928
H 1.228096	-0.874532	1.955817
H 2.653326	0.001761	1.451928
H 1.225364	0.872859	1.956783
H 1.426671	0.873653	-0.504398
H 1.426671	-0.873653	-0.504398
