3
Bead 0: Energy = -1.00336898873
H 0.000000	0.000000	0.000000
O 0.000000	0.000000	0.000000
H nan	nan	nan
3
Bead 1: Energy = -0.547833606601
H 0.000000	0.000000	0.000000
O 0.186017	0.000000	0.000000
H 0.000009	0.000000	0.001830
3
Bead 2: Energy = -0.672104521523
H 0.000000	0.000000	0.000000
O 0.596288	0.000000	0.000000
H 0.000083	0.000000	0.009924
3
Bead 3: Energy = -0.710397702104
H 0.000000	0.000000	0.000000
O 0.513599	0.000000	0.000000
H 0.000184	0.000000	0.013743
3
Bead 4: Energy = -0.425331591409
H 0.000000	0.000000	0.000000
O 0.704586	0.000000	0.000000
H 0.000453	0.000000	0.025258
3
Bead 5: Energy = -0.370527181802
H 0.000000	0.000000	0.000000
O 1.113543	0.000000	0.000000
H 0.001076	0.000000	0.048938
3
Bead 6: Energy = -0.0784439671806
H 0.000000	0.000000	0.000000
O 1.640209	0.000000	0.000000
H 0.001565	0.000000	0.071643
3
Bead 7: Energy = -0.464298374922
H 0.000000	0.000000	0.000000
O 2.154916	0.000000	0.000000
H 0.001831	0.000000	0.088814
3
Bead 8: Energy = -0.30899673684
H 0.000000	0.000000	0.000000
O 2.469778	0.000000	0.000000
H 0.003029	0.000000	0.122285
3
Bead 9: Energy = -0.820000895403
H 0.000000	0.000000	0.000000
O 3.000000	0.000000	0.000000
H 0.004111	0.000000	0.157008
