5
Bead 0: Energy = -20.988275
Pd	0.075997	0.043743	0.448944
Pd	1.397994	2.333126	0.450156
Pd	2.719832	0.044589	0.448800
Pd	4.194287	2.420661	1.453119
H	1.397937	0.807336	1.501050
5
Bead 1: Energy = -23.024797
Pd	0.150609	-0.226812	0.348609
Pd	1.108251	2.289130	0.525762
Pd	2.952551	0.347957	0.431993
Pd	4.261077	2.530839	1.461079
H	1.541534	0.885199	1.488167
5
Bead 2: Energy = -23.766859
Pd	0.115125	-0.361434	0.228142
Pd	1.041154	2.194503	0.591384
Pd	3.118695	0.514615	0.421502
Pd	4.374099	2.797119	1.384978
H	1.758555	0.986860	1.549392
5
Bead 3: Energy = -23.898435
Pd	-0.001824	-0.394713	0.168456
Pd	1.098882	2.127281	0.752715
Pd	3.196614	0.566774	0.457383
Pd	4.496716	3.027623	1.095459
H	1.924657	1.043183	1.638737
5
Bead 4: Energy = -23.596402
Pd	-0.080457	-0.357832	0.182980
Pd	1.142996	2.164656	0.858286
Pd	3.264014	0.554413	0.643318
Pd	4.567290	3.096078	0.687043
H	2.041793	1.083960	1.696171
5
Bead 5: Energy = -23.75711
Pd	-0.049972	-0.294344	0.270999
Pd	1.183815	2.235573	0.926430
Pd	3.333931	0.565837	0.769899
Pd	4.622321	3.097750	0.286336
H	2.191255	1.204657	1.743681
5
Bead 6: Energy = -24.092711
Pd	-0.007430	-0.319635	0.403893
Pd	1.192632	2.230256	0.994910
Pd	3.405761	0.710547	0.726122
Pd	4.736285	3.150533	0.001106
H	2.362384	1.354505	1.788112
5
Bead 7: Energy = -24.246421
Pd	0.048287	-0.365968	0.403749
Pd	1.221519	2.223350	1.036406
Pd	3.536680	0.886093	0.690154
Pd	4.894430	3.250731	-0.153603
H	2.532003	1.553468	1.826722
