14
Bead 0: Energy = -156.431333055
C 0.000000	0.000000	0.000000
C 1.541527	0.000000	0.000000
C 2.147866	0.000000	1.419070
C 1.879910	-1.306477	2.192078
H 1.748439	0.841594	1.977148
H 3.220734	0.147623	1.342899
H 1.905515	-0.867180	-0.542982
H 1.891363	0.879586	-0.531559
H -0.378587	0.853411	0.553174
H -0.383441	0.057912	-1.012986
H -0.394375	-0.901102	0.453680
H 2.369751	-1.286855	3.159644
H 0.820075	-1.455658	2.358980
H 2.260625	-2.158707	1.638562
14
Bead 1: Energy = -156.355307181
C 0.000000	0.000000	0.000000
C 1.610872	0.000000	0.000000
C 2.217237	0.000000	1.419364
C 1.564713	-1.087628	2.376948
H 1.624619	0.657032	2.062811
H 3.283187	0.104443	1.342161
H 1.429844	-1.030715	-0.312278
H 2.166293	0.681979	-0.615143
H -0.381460	0.862204	0.540212
H -0.383685	0.041548	-1.014557
H -0.389010	-0.888073	0.464390
H 2.046794	-1.080940	3.350154
H 0.517235	-0.896753	2.525560
H 1.673575	-2.083994	1.952948
14
Bead 2: Energy = -156.113182874
C 0.000000	0.000000	0.000000
C 1.843971	0.000000	0.000000
C 2.451240	0.000000	1.421752
C 1.372035	-0.822846	2.670233
H 1.742133	0.406317	2.104640
H 3.513416	0.062196	1.343962
H 1.147991	-0.801836	-0.082750
H 2.546023	0.434394	-0.675637
H -0.382923	0.867626	0.525168
H -0.380983	0.024940	-1.008163
H -0.390738	-0.890955	0.483559
H 1.842559	-0.822057	3.640197
H 0.418200	-0.310629	2.760422
H 1.179948	-1.852533	2.390992
14
Bead 3: Energy = -155.995352888
C 0.000000	0.000000	0.000000
C 2.323856	0.000000	0.000000
C 2.834903	0.000000	1.196299
C 1.256022	-0.358071	2.863391
H 1.992984	0.150822	1.966630
H 3.904558	0.020458	1.117074
H 1.222474	-0.329156	0.059808
H 3.110618	0.149865	-0.713730
H -0.384782	0.873795	0.510544
H -0.382101	0.008505	-1.011174
H -0.389025	-0.885464	0.498475
H 1.723068	-0.358352	3.838282
H 0.497430	0.421875	2.854727
H 0.763285	-1.312598	2.728046
14
Bead 4: Energy = -155.997819503
C 0.000000	0.000000	0.000000
C 2.328913	0.000000	0.000000
C 2.837874	0.000000	1.191494
C 1.252415	0.338353	2.863458
H 1.991464	-0.139980	1.965210
H 3.906893	-0.020417	1.112320
H 1.217539	0.309177	0.062555
H 3.116512	-0.140068	-0.713837
H -0.388840	0.884629	0.499160
H -0.382037	-0.007499	-1.011023
H -0.384927	-0.874574	0.509833
H 1.719315	0.338848	3.838226
H 0.751162	1.289345	2.731836
H 0.501006	-0.447879	2.851625
14
Bead 5: Energy = -156.106337834
C 0.000000	0.000000	0.000000
C 1.858035	0.000000	0.000000
C 2.463787	0.000000	1.418554
C 1.371250	0.819299	2.678456
H 1.751822	-0.398977	2.102567
H 3.526652	-0.062628	1.340751
H 1.151464	0.792868	-0.078290
H 2.563417	-0.428378	-0.677242
H -0.390505	0.890111	0.484068
H -0.381417	-0.024141	-1.009407
H -0.382531	-0.867268	0.523961
H 1.842187	0.818806	3.649641
H 1.173250	1.847635	2.402173
H 0.420910	0.301294	2.767147
14
Bead 6: Energy = -156.350694054
C 0.000000	0.000000	0.000000
C 1.599191	0.000000	0.000000
C 2.204339	0.000000	1.416959
C 1.535617	1.093147	2.389607
H 1.608329	-0.647498	2.060484
H 3.269641	-0.104589	1.339766
H 1.402161	1.028938	-0.305180
H 2.159759	-0.675797	-0.617165
H -0.393992	0.898960	0.471134
H -0.385399	-0.040813	-1.019182
H -0.382209	-0.864482	0.540541
H 2.019339	1.086849	3.366628
H 1.637157	2.091129	1.969320
H 0.476613	0.891837	2.538912
14
Bead 7: Energy = -156.431333077
C 0.000000	0.000000	0.000000
C 1.541544	0.000000	0.000000
C 2.147601	0.000000	1.419164
C 1.881170	1.307377	2.191263
H 1.746998	-0.840767	1.977640
H 3.220273	-0.148991	1.343164
H 1.905639	0.867167	-0.542885
H 1.891362	-0.879636	-0.531478
H -0.394386	0.900866	0.454094
H -0.383397	-0.057451	-1.013002
H -0.378491	-0.853693	0.552765
H 2.371004	1.287863	3.158811
H 2.262894	2.158723	1.637102
H 0.821549	1.457929	2.358106
