3
Bead 0: Energy = -1.00336898873
H 0.000000	0.000000	0.000000
O 0.000000	0.000000	0.000000
H nan	nan	nan
3
Bead 1: Energy = -0.833446424695
H 0.000000	0.000000	0.000000
O 0.259051	0.000000	0.000000
H 0.000006	0.000000	0.001736
3
Bead 2: Energy = -0.521744323928
H 0.000000	0.000000	0.000000
O 0.394983	0.000000	0.000000
H 0.000044	0.000000	0.005922
3
Bead 3: Energy = -0.362187994398
H 0.000000	0.000000	0.000000
O 0.683269	0.000000	0.000000
H 0.000161	0.000000	0.014815
3
Bead 4: Energy = -0.247077610536
H 0.000000	0.000000	0.000000
O 1.006681	0.000000	0.000000
H 0.000398	0.000000	0.028291
3
Bead 5: Energy = -0.0835290064826
H 0.000000	0.000000	0.000000
O 1.387963	0.000000	0.000000
H 0.000772	0.000000	0.046297
3
Bead 6: Energy = -0.0684578809162
H 0.000000	0.000000	0.000000
O 1.776779	0.000000	0.000000
H 0.001322	0.000000	0.068519
3
Bead 7: Energy = -0.291044898747
H 0.000000	0.000000	0.000000
O 2.179468	0.000000	0.000000
H 0.002050	0.000000	0.094500
3
Bead 8: Energy = -0.650303757243
H 0.000000	0.000000	0.000000
O 2.624338	0.000000	0.000000
H 0.002888	0.000000	0.123093
3
Bead 9: Energy = -0.820000895403
H 0.000000	0.000000	0.000000
O 3.000000	0.000000	0.000000
H 0.004111	0.000000	0.157008
