3
Bead 0: Energy = -1.00336898873
H 0.000000	0.000000	0.000000
O 0.000000	0.000000	0.000000
H nan	nan	nan
3
Bead 1: Energy = -0.804562921137
H 0.000000	0.000000	0.000000
O 0.495207	0.000000	0.000000
H 0.000000	-0.000000	-0.000291
3
Bead 2: Energy = -0.451965391419
H 0.000000	0.000000	0.000000
O 0.119495	0.000000	0.000000
H 0.000005	0.000000	0.001042
3
Bead 3: Energy = -0.43827344953
H 0.000000	0.000000	0.000000
O 0.588513	0.000000	0.000000
H 0.000079	0.000000	0.009659
3
Bead 4: Energy = -0.451775147713
H 0.000000	0.000000	0.000000
O 0.618608	0.000000	0.000000
H 0.000225	0.000000	0.016699
3
Bead 5: Energy = -0.104214650266
H 0.000000	0.000000	0.000000
O 0.774124	0.000000	0.000000
H 0.000564	0.000000	0.029550
3
Bead 6: Energy = -0.154879523221
H 0.000000	0.000000	0.000000
O 1.338904	0.000000	0.000000
H 0.001427	0.000000	0.061791
3
Bead 7: Energy = -0.581498753606
H 0.000000	0.000000	0.000000
O 1.861364	0.000000	0.000000
H 0.001734	0.000000	0.080320
3
Bead 8: Energy = -0.785932786034
H 0.000000	0.000000	0.000000
O 2.471055	0.000000	0.000000
H 0.002614	0.000000	0.113640
3
Bead 9: Energy = -0.820000895403
H 0.000000	0.000000	0.000000
O 3.000000	0.000000	0.000000
H 0.004111	0.000000	0.157008
