3
Bead 0: Energy = -1.00336898873
H 0.000000	0.000000	0.000000
O 0.000000	0.000000	0.000000
H nan	nan	nan
3
Bead 1: Energy = -0.831661307705
H 0.000000	0.000000	0.000000
O 0.267992	0.000000	0.000000
H 0.000006	0.000000	0.001770
3
Bead 2: Energy = -0.492760247782
H 0.000000	0.000000	0.000000
O 0.575898	0.000000	0.000000
H 0.000048	0.000000	0.007424
3
Bead 3: Energy = -0.264029467975
H 0.000000	0.000000	0.000000
O 0.893225	0.000000	0.000000
H 0.000159	0.000000	0.016879
3
Bead 4: Energy = -0.117585212314
H 0.000000	0.000000	0.000000
O 1.231937	0.000000	0.000000
H 0.000380	0.000000	0.030602
3
Bead 5: Energy = -0.0253905492665
H 0.000000	0.000000	0.000000
O 1.575915	0.000000	0.000000
H 0.000728	0.000000	0.047900
3
Bead 6: Energy = -0.0616587618485
H 0.000000	0.000000	0.000000
O 1.925985	0.000000	0.000000
H 0.001245	0.000000	0.069235
3
Bead 7: Energy = -0.297813712037
H 0.000000	0.000000	0.000000
O 2.292130	0.000000	0.000000
H 0.001931	0.000000	0.094066
3
Bead 8: Energy = -0.655987477726
H 0.000000	0.000000	0.000000
O 2.632943	0.000000	0.000000
H 0.002912	0.000000	0.123802
3
Bead 9: Energy = -0.820000895403
H 0.000000	0.000000	0.000000
O 3.000000	0.000000	0.000000
H 0.004111	0.000000	0.157008
