14
Bead 0: Energy = -156.431333055
C 0.000000	0.000000	0.000000
C 1.541527	0.000000	0.000000
C 2.147866	0.000000	1.419070
C 1.879910	-1.306477	2.192078
H 1.748439	0.841594	1.977148
H 3.220734	0.147623	1.342899
H 1.905515	-0.867180	-0.542982
H 1.891363	0.879586	-0.531559
H -0.378587	0.853411	0.553174
H -0.383441	0.057912	-1.012986
H -0.394375	-0.901102	0.453680
H 2.369751	-1.286855	3.159644
H 0.820075	-1.455658	2.358980
H 2.260625	-2.158707	1.638562
14
Bead 1: Energy = -156.355239146
C 0.000000	0.000000	0.000000
C 1.594189	0.000000	0.000000
C 2.198823	0.000000	1.415197
C 1.544164	-1.090812	2.375871
H 1.608533	0.654603	2.056203
H 3.259431	0.104005	1.338236
H 1.413438	-1.028594	-0.311607
H 2.147319	0.678751	-0.612372
H -0.382493	0.864568	0.541722
H -0.383370	0.041532	-1.013618
H -0.390606	-0.891589	0.466198
H 2.025580	-1.084164	3.347632
H 0.492607	-0.899047	2.525173
H 1.652783	-2.088569	1.951644
14
Bead 2: Energy = -156.101691005
C 0.000000	0.000000	0.000000
C 1.756804	0.000000	0.000000
C 2.362709	0.000000	1.418302
C 1.334349	-0.783208	2.608032
H 1.647586	0.410040	2.107008
H 3.431042	0.062783	1.339715
H 1.054635	-0.808622	-0.083259
H 2.463391	0.436330	-0.679556
H -0.384649	0.871549	0.527609
H -0.382699	0.025099	-1.012417
H -0.390342	-0.889835	0.482851
H 1.806926	-0.782503	3.582069
H 0.381963	-0.271214	2.698252
H 1.140878	-1.817618	2.327808
14
Bead 3: Energy = -155.700399158
C 0.000000	0.000000	0.000000
C 1.864445	0.000000	0.000000
C 2.477055	0.000000	1.434016
C 1.210292	-0.287064	2.771568
H 1.787443	0.123521	2.064962
H 3.545785	0.020465	1.354796
H 0.962277	-0.269488	0.049037
H 2.650579	0.149585	-0.713086
H -0.384695	0.873584	0.510424
H -0.381774	0.008501	-1.010246
H -0.387449	-0.881861	0.496444
H 1.676909	-0.287357	3.745575
H 0.454875	0.489799	2.762918
H 0.717554	-1.241311	2.636315
14
Bead 4: Energy = -155.686874459
C 0.000000	0.000000	0.000000
C 1.863414	0.000000	0.000000
C 2.476072	0.000000	1.434233
C 1.207828	0.272913	2.771902
H 1.787800	-0.114847	2.063423
H 3.544889	-0.020612	1.355019
H 0.960116	0.253519	0.050662
H 2.650755	-0.141145	-0.713609
H -0.387316	0.881153	0.497122
H -0.381776	-0.007566	-1.010272
H -0.384718	-0.874081	0.509625
H 1.674387	0.273420	3.745955
H 0.707921	1.223908	2.639827
H 0.458486	-0.509361	2.760575
14
Bead 5: Energy = -156.092886048
C 0.000000	0.000000	0.000000
C 1.764322	0.000000	0.000000
C 2.369859	0.000000	1.417763
C 1.331540	0.775853	2.614748
H 1.651416	-0.401871	2.107809
H 3.437319	-0.062966	1.339288
H 1.050058	0.798467	-0.078137
H 2.473471	-0.428849	-0.680282
H -0.390025	0.888749	0.483288
H -0.382574	-0.024190	-1.012153
H -0.384599	-0.871920	0.526763
H 1.803812	0.775436	3.588581
H 1.131048	1.809611	2.337657
H 0.383392	0.257435	2.703175
14
Bead 6: Energy = -156.352661028
C 0.000000	0.000000	0.000000
C 1.596479	0.000000	0.000000
C 2.200603	0.000000	1.414509
C 1.540895	1.088606	2.378089
H 1.602747	-0.654452	2.061315
H 3.262597	-0.104854	1.337508
H 1.405275	1.035193	-0.309823
H 2.153300	-0.676218	-0.614358
H -0.390461	0.890931	0.466666
H -0.383557	-0.040837	-1.014209
H -0.382225	-0.864481	0.540793
H 2.022465	1.082268	3.350439
H 1.645893	2.086702	1.955609
H 0.490387	0.892870	2.526911
14
Bead 7: Energy = -156.431333077
C 0.000000	0.000000	0.000000
C 1.541544	0.000000	0.000000
C 2.147601	0.000000	1.419164
C 1.881170	1.307377	2.191263
H 1.746998	-0.840767	1.977640
H 3.220273	-0.148991	1.343164
H 1.905639	0.867167	-0.542885
H 1.891362	-0.879636	-0.531478
H -0.394386	0.900866	0.454094
H -0.383397	-0.057451	-1.013002
H -0.378491	-0.853693	0.552765
H 2.371004	1.287863	3.158811
H 2.262894	2.158723	1.637102
H 0.821549	1.457929	2.358106
