3
Bead 0: Energy = -1.00336898873
H 0.000000	0.000000	0.000000
O 0.000000	0.000000	0.000000
H nan	nan	nan
3
Bead 1: Energy = -0.877368709101
H 0.000000	0.000000	0.000000
O 0.067965	0.000000	0.000000
H 0.000002	0.000000	0.000512
3
Bead 2: Energy = -0.533005627831
H 0.000000	0.000000	0.000000
O 0.511085	0.000000	0.000000
H 0.000061	0.000000	0.007868
3
Bead 3: Energy = -0.411244455158
H 0.000000	0.000000	0.000000
O 0.610552	0.000000	0.000000
H 0.000205	0.000000	0.015810
3
Bead 4: Energy = -0.469779464096
H 0.000000	0.000000	0.000000
O 0.710035	0.000000	0.000000
H 0.000469	0.000000	0.025794
3
Bead 5: Energy = -0.192879569003
H 0.000000	0.000000	0.000000
O 1.198472	0.000000	0.000000
H 0.001195	0.000000	0.053499
3
Bead 6: Energy = -0.0820933646712
H 0.000000	0.000000	0.000000
O 1.727242	0.000000	0.000000
H 0.001693	0.000000	0.076447
3
Bead 7: Energy = -0.284512128014
H 0.000000	0.000000	0.000000
O 2.334632	0.000000	0.000000
H 0.002260	0.000000	0.102693
3
Bead 8: Energy = -0.756582810906
H 0.000000	0.000000	0.000000
O 2.517667	0.000000	0.000000
H 0.003357	0.000000	0.129976
3
Bead 9: Energy = -0.820000895403
H 0.000000	0.000000	0.000000
O 3.000000	0.000000	0.000000
H 0.004111	0.000000	0.157008
