14
Bead 0: Energy = -156.431333055
C 0.000000	0.000000	0.000000
C 1.541527	0.000000	0.000000
C 2.147866	0.000000	1.419070
C 1.879910	-1.306477	2.192078
H 1.748439	0.841594	1.977148
H 3.220734	0.147623	1.342899
H 1.905515	-0.867180	-0.542982
H 1.891363	0.879586	-0.531559
H -0.378587	0.853411	0.553174
H -0.383441	0.057912	-1.012986
H -0.394375	-0.901102	0.453680
H 2.369751	-1.286855	3.159644
H 0.820075	-1.455658	2.358980
H 2.260625	-2.158707	1.638562
14
Bead 1: Energy = -156.355427297
C 0.000000	0.000000	0.000000
C 1.601604	0.000000	0.000000
C 2.207849	0.000000	1.419074
C 1.551198	-1.094482	2.382711
H 1.614509	0.657840	2.063307
H 3.273216	0.104391	1.341905
H 1.420028	-1.033798	-0.313209
H 2.157087	0.682030	-0.615198
H -0.380885	0.860907	0.539401
H -0.385825	0.041781	-1.020210
H -0.391701	-0.894213	0.467598
H 2.035711	-1.087762	3.360821
H 0.496634	-0.902305	2.532332
H 1.659716	-2.087975	1.959923
14
Bead 2: Energy = -156.112967765
C 0.000000	0.000000	0.000000
C 1.838573	0.000000	0.000000
C 2.443280	0.000000	1.415720
C 1.367257	-0.820298	2.660527
H 1.731735	0.407752	2.100959
H 3.505792	0.062246	1.337858
H 1.140134	-0.804625	-0.083013
H 2.540942	0.434475	-0.675883
H -0.384971	0.872269	0.527988
H -0.382277	0.025031	-1.011547
H -0.388398	-0.885587	0.480632
H 1.839349	-0.819518	3.633704
H 0.419201	-0.311112	2.750192
H 1.174069	-1.855521	2.379818
14
Bead 3: Energy = -155.957283599
C 0.000000	0.000000	0.000000
C 2.265941	0.000000	0.000000
C 2.803351	0.000000	1.257985
C 1.263837	-0.349101	2.883558
H 1.994798	0.144831	1.997781
H 3.869101	0.020384	1.179026
H 1.208204	-0.316076	0.057462
H 3.049838	0.149297	-0.711123
H -0.385020	0.874324	0.510852
H -0.381648	0.008494	-1.009959
H -0.388005	-0.883145	0.497170
H 1.730334	-0.349381	3.857274
H 0.507248	0.428818	2.874920
H 0.770780	-1.304199	2.748152
14
Bead 4: Energy = -155.957998122
C 0.000000	0.000000	0.000000
C 2.271016	0.000000	0.000000
C 2.806574	0.000000	1.253735
C 1.260629	0.330511	2.884127
H 1.994799	-0.134495	1.995800
H 3.872347	-0.020392	1.174782
H 1.205227	0.297043	0.059956
H 3.056198	-0.139883	-0.711655
H -0.387920	0.882539	0.497966
H -0.381629	-0.007505	-1.009927
H -0.385133	-0.875034	0.510116
H 1.727035	0.331005	3.857837
H 0.759337	1.282119	2.752333
H 0.510804	-0.453680	2.872426
14
Bead 5: Energy = -156.105966071
C 0.000000	0.000000	0.000000
C 1.852993	0.000000	0.000000
C 2.457001	0.000000	1.414424
C 1.367395	0.816677	2.670890
H 1.742626	-0.400233	2.100726
H 3.518939	-0.062588	1.336634
H 1.143880	0.795296	-0.078429
H 2.557840	-0.427783	-0.676638
H -0.388237	0.884899	0.481226
H -0.382221	-0.024190	-1.011484
H -0.384910	-0.872660	0.527219
H 1.839305	0.816196	3.644064
H 1.167954	1.851398	2.392986
H 0.422869	0.301607	2.759036
14
Bead 6: Energy = -156.353084808
C 0.000000	0.000000	0.000000
C 1.602027	0.000000	0.000000
C 2.207211	0.000000	1.417029
C 1.545760	1.093471	2.383901
H 1.614066	-0.649914	2.058948
H 3.273090	-0.105239	1.339801
H 1.413356	1.027503	-0.308020
H 2.160400	-0.679265	-0.616441
H -0.388962	0.887484	0.464874
H -0.386107	-0.041119	-1.021032
H -0.382586	-0.865304	0.541316
H 2.030573	1.087036	3.362797
H 1.651580	2.092118	1.960856
H 0.498949	0.899271	2.531929
14
Bead 7: Energy = -156.431333077
C 0.000000	0.000000	0.000000
C 1.541544	0.000000	0.000000
C 2.147601	0.000000	1.419164
C 1.881170	1.307377	2.191263
H 1.746998	-0.840767	1.977640
H 3.220273	-0.148991	1.343164
H 1.905639	0.867167	-0.542885
H 1.891362	-0.879636	-0.531478
H -0.394386	0.900866	0.454094
H -0.383397	-0.057451	-1.013002
H -0.378491	-0.853693	0.552765
H 2.371004	1.287863	3.158811
H 2.262894	2.158723	1.637102
H 0.821549	1.457929	2.358106
