14
Bead 0: Energy = -156.431333055
C 0.000000	0.000000	0.000000
C 1.541527	0.000000	0.000000
C 2.147866	0.000000	1.419070
C 1.879910	-1.306477	2.192078
H 1.748439	0.841594	1.977148
H 3.220734	0.147623	1.342899
H 1.905515	-0.867180	-0.542982
H 1.891363	0.879586	-0.531559
H -0.378587	0.853411	0.553174
H -0.383441	0.057912	-1.012986
H -0.394375	-0.901102	0.453680
H 2.369751	-1.286855	3.159644
H 0.820075	-1.455658	2.358980
H 2.260625	-2.158707	1.638562
14
Bead 1: Energy = -156.351849099
C 0.000000	0.000000	0.000000
C 1.545491	0.000000	0.000000
C 2.151819	0.000000	1.419153
C 1.517148	-1.057484	2.350495
H 1.563242	0.652713	2.058309
H 3.228356	0.105571	1.341029
H 1.365246	-1.025660	-0.310719
H 2.106930	0.688921	-0.621558
H -0.381048	0.861309	0.539682
H -0.383415	0.041539	-1.013737
H -0.391997	-0.894763	0.467856
H 1.998622	-1.050835	3.322362
H 0.461840	-0.865022	2.500334
H 1.625340	-2.051458	1.927882
14
Bead 2: Energy = -156.051039539
C 0.000000	0.000000	0.000000
C 1.558243	0.000000	0.000000
C 2.164575	0.000000	1.419270
C 1.252408	-0.694539	2.474560
H 1.442055	0.414328	2.115125
H 3.243358	0.063438	1.339864
H 0.848724	-0.816979	-0.084100
H 2.271824	0.440469	-0.686202
H -0.383568	0.869123	0.526155
H -0.383309	0.025151	-1.014008
H -0.390113	-0.889325	0.482554
H 1.725742	-0.693849	3.450121
H 0.300629	-0.182733	2.564730
H 1.059372	-1.726040	2.195153
14
Bead 3: Energy = -154.702322947
C 0.000000	0.000000	0.000000
C 1.598196	0.000000	0.000000
C 2.204803	0.000000	1.420007
C 1.119982	-0.252818	2.566074
H 1.441180	0.140622	2.118895
H 3.286606	0.021319	1.339820
H 0.600924	-0.306591	0.053312
H 2.393393	0.155548	-0.721548
H -0.385264	0.874850	0.511420
H -0.383290	0.008767	-1.014249
H -0.387717	-0.882498	0.496549
H 1.588461	-0.253125	3.543935
H 0.360879	0.521399	2.558989
H 0.630441	-1.210319	2.428694
14
Bead 4: Energy = -154.656965823
C 0.000000	0.000000	0.000000
C 1.598308	0.000000	0.000000
C 2.204863	0.000000	1.419994
C 1.118128	0.241363	2.566852
H 1.440721	-0.131630	2.118766
H 3.286708	-0.021509	1.339818
H 0.597202	0.290281	0.055243
H 2.394684	-0.147327	-0.722044
H -0.387686	0.882023	0.497340
H -0.383287	-0.007846	-1.014263
H -0.385263	-0.875295	0.510608
H 1.586544	0.241886	3.544749
H 0.621722	1.195738	2.432520
H 0.364653	-0.538245	2.557217
14
Bead 5: Energy = -156.044639364
C 0.000000	0.000000	0.000000
C 1.559042	0.000000	0.000000
C 2.165267	0.000000	1.419343
C 1.247470	0.684961	2.477201
H 1.439571	-0.405619	2.116318
H 3.244030	-0.063628	1.339982
H 0.837091	0.805945	-0.078673
H 2.275918	-0.432949	-0.687541
H -0.390100	0.888929	0.483386
H -0.383288	-0.024229	-1.014021
H -0.383557	-0.869586	0.525347
H 1.720622	0.684563	3.452834
H 1.047058	1.715915	2.201050
H 0.299368	0.165995	2.565556
14
Bead 6: Energy = -156.34688536
C 0.000000	0.000000	0.000000
C 1.545710	0.000000	0.000000
C 2.151836	0.000000	1.419215
C 1.509196	1.050127	2.353805
H 1.557747	-0.645491	2.060627
H 3.228320	-0.105759	1.341169
H 1.349413	1.024770	-0.303856
H 2.112312	-0.682710	-0.623667
H -0.391956	0.894346	0.468670
H -0.383383	-0.040617	-1.013764
H -0.381037	-0.861809	0.538893
H 1.990433	1.043903	3.325773
H 1.610323	2.046185	1.934336
H 0.455287	0.849554	2.502729
14
Bead 7: Energy = -156.431333077
C 0.000000	0.000000	0.000000
C 1.541544	0.000000	0.000000
C 2.147601	0.000000	1.419164
C 1.881170	1.307377	2.191263
H 1.746998	-0.840767	1.977640
H 3.220273	-0.148991	1.343164
H 1.905639	0.867167	-0.542885
H 1.891362	-0.879636	-0.531478
H -0.394386	0.900866	0.454094
H -0.383397	-0.057451	-1.013002
H -0.378491	-0.853693	0.552765
H 2.371004	1.287863	3.158811
H 2.262894	2.158723	1.637102
H 0.821549	1.457929	2.358106
