3
Bead 0: Energy = -1.00336898873
H 0.000000	0.000000	0.000000
O 0.000000	0.000000	0.000000
H nan	nan	nan
3
Bead 1: Energy = -0.789290823439
H 0.000000	0.000000	0.000000
O 0.270698	0.000000	0.000000
H 0.000007	0.000000	0.001968
3
Bead 2: Energy = -0.461853321911
H 0.000000	0.000000	0.000000
O 0.548872	0.000000	0.000000
H 0.000078	0.000000	0.009266
3
Bead 3: Energy = -0.422933567375
H 0.000000	0.000000	0.000000
O 0.593176	0.000000	0.000000
H 0.000215	0.000000	0.015983
3
Bead 4: Energy = -0.472548275579
H 0.000000	0.000000	0.000000
O 0.712114	0.000000	0.000000
H 0.000476	0.000000	0.026046
3
Bead 5: Energy = -0.294986372293
H 0.000000	0.000000	0.000000
O 1.195269	0.000000	0.000000
H 0.001208	0.000000	0.053720
3
Bead 6: Energy = -0.0743588856359
H 0.000000	0.000000	0.000000
O 1.829020	0.000000	0.000000
H 0.001895	0.000000	0.083234
3
Bead 7: Energy = -0.205654201765
H 0.000000	0.000000	0.000000
O 2.445236	0.000000	0.000000
H 0.002644	0.000000	0.113681
3
Bead 8: Energy = -0.60979186593
H 0.000000	0.000000	0.000000
O 2.398981	0.000000	0.000000
H 0.002915	0.000000	0.118234
3
Bead 9: Energy = -0.820000895403
H 0.000000	0.000000	0.000000
O 3.000000	0.000000	0.000000
H 0.004111	0.000000	0.157008
