14
Bead 0: Energy = -156.431333055
C 0.000000	0.000000	0.000000
C 1.541527	0.000000	0.000000
C 2.147866	0.000000	1.419070
C 1.879910	-1.306477	2.192078
H 1.748439	0.841594	1.977148
H 3.220734	0.147623	1.342899
H 1.905515	-0.867180	-0.542982
H 1.891363	0.879586	-0.531559
H -0.378587	0.853411	0.553174
H -0.383441	0.057912	-1.012986
H -0.394375	-0.901102	0.453680
H 2.369751	-1.286855	3.159644
H 0.820075	-1.455658	2.358980
H 2.260625	-2.158707	1.638562
14
Bead 1: Energy = -156.355417133
C 0.000000	0.000000	0.000000
C 1.599024	0.000000	0.000000
C 2.209070	0.000000	1.427954
C 1.552357	-1.094466	2.391651
H 1.616901	0.656575	2.070906
H 3.272201	0.104201	1.350901
H 1.417768	-1.031877	-0.312599
H 2.153323	0.680441	-0.613801
H -0.380418	0.859825	0.538729
H -0.381828	0.041351	-1.009571
H -0.391125	-0.892817	0.466860
H 2.031802	-1.087837	3.359539
H 0.499283	-0.902531	2.541109
H 1.660494	-2.086693	1.969732
14
Bead 2: Energy = -156.1110488
C 0.000000	0.000000	0.000000
C 1.809595	0.000000	0.000000
C 2.416594	0.000000	1.420914
C 1.357417	-0.806947	2.646306
H 1.707598	0.406452	2.103697
H 3.477618	0.062291	1.342950
H 1.113540	-0.801697	-0.082581
H 2.511217	0.433512	-0.674905
H -0.387206	0.877322	0.531082
H -0.381070	0.024975	-1.008165
H -0.389511	-0.887974	0.481866
H 1.827995	-0.806219	3.616264
H 0.406964	-0.296161	2.736316
H 1.162817	-1.848204	2.364180
14
Bead 3: Energy = -155.816216681
C 0.000000	0.000000	0.000000
C 2.037800	0.000000	0.000000
C 2.643274	0.000000	1.417286
C 1.258755	-0.313819	2.879222
H 1.913638	0.130684	2.084863
H 3.704888	0.020317	1.338601
H 1.083286	-0.285150	0.051883
H 2.818680	0.148634	-0.708354
H -0.384741	0.873688	0.510481
H -0.380925	0.008479	-1.008011
H -0.386458	-0.879612	0.495180
H 1.724356	-0.314104	3.851064
H 0.505241	0.461037	2.870609
H 0.765989	-1.268195	2.743949
14
Bead 4: Energy = -155.808566593
C 0.000000	0.000000	0.000000
C 2.040101	0.000000	0.000000
C 2.645526	0.000000	1.417272
C 1.256954	0.298141	2.881839
H 1.915926	-0.121440	2.084238
H 3.707060	-0.020413	1.338604
H 1.082438	0.268127	0.053777
H 2.822099	-0.139891	-0.708779
H -0.386331	0.878918	0.495883
H -0.380917	-0.007528	-1.008013
H -0.384760	-0.874180	0.509659
H 1.722485	0.298641	3.853705
H 0.756701	1.249098	2.749904
H 0.509751	-0.482383	2.870426
14
Bead 5: Energy = -156.103374286
C 0.000000	0.000000	0.000000
C 1.820172	0.000000	0.000000
C 2.428028	0.000000	1.423232
C 1.357174	0.801118	2.657924
H 1.716697	-0.398157	2.106487
H 3.489600	-0.062609	1.345262
H 1.113423	0.791093	-0.077609
H 2.525188	-0.426923	-0.676490
H -0.389801	0.888268	0.483030
H -0.381178	-0.024104	-1.008512
H -0.386646	-0.876543	0.529557
H 1.827739	0.800675	3.628250
H 1.156074	1.840405	2.379160
H 0.409319	0.283411	2.746373
14
Bead 6: Energy = -156.352820709
C 0.000000	0.000000	0.000000
C 1.600939	0.000000	0.000000
C 2.208882	0.000000	1.423536
C 1.547441	1.091767	2.389686
H 1.616216	-0.648701	2.064647
H 3.267897	-0.104515	1.346837
H 1.411539	1.026089	-0.307117
H 2.156059	-0.674435	-0.612619
H -0.390548	0.891167	0.466807
H -0.382902	-0.040755	-1.012507
H -0.381932	-0.863768	0.540328
H 2.028154	1.085432	3.360404
H 1.652497	2.089079	1.967488
H 0.496662	0.896117	2.538490
14
Bead 7: Energy = -156.431333077
C 0.000000	0.000000	0.000000
C 1.541544	0.000000	0.000000
C 2.147601	0.000000	1.419164
C 1.881170	1.307377	2.191263
H 1.746998	-0.840767	1.977640
H 3.220273	-0.148991	1.343164
H 1.905639	0.867167	-0.542885
H 1.891362	-0.879636	-0.531478
H -0.394386	0.900866	0.454094
H -0.383397	-0.057451	-1.013002
H -0.378491	-0.853693	0.552765
H 2.371004	1.287863	3.158811
H 2.262894	2.158723	1.637102
H 0.821549	1.457929	2.358106
