7
Bead 0: Energy = -1.7693313886
Cu	7.624664	2.219071	9.741115
Cu	6.538128	1.093040	11.633211
Cu	3.278629	4.473803	9.744382
Cu	3.184830	-0.239065	10.065019
C	4.954959	2.013993	9.729827
H	4.710036	2.512147	10.546892
H	4.392352	1.937705	10.537374
7
Bead 1: Energy = 1.5166343355
Cu	7.126194	2.241003	9.722368
Cu	6.624788	1.275938	11.344310
Cu	3.213685	4.552111	9.756093
Cu	3.133316	-0.236326	10.030170
C	5.052397	2.077307	9.986014
H	4.845627	2.637594	10.729078
H	4.572142	1.875972	10.711589
7
Bead 2: Energy = 20.7635863797
Cu	6.627723	2.262934	9.703621
Cu	6.711448	1.458835	11.055410
Cu	3.148742	4.630420	9.767804
Cu	3.081802	-0.233588	9.995321
C	5.149835	2.140621	10.242201
H	4.981217	2.763040	10.911264
H	4.751932	1.814239	10.885804
7
Bead 3: Energy = 60.811883556
Cu	6.129253	2.284866	9.684874
Cu	6.798108	1.641733	10.766510
Cu	3.083798	4.708729	9.779515
Cu	3.030288	-0.230850	9.960471
C	5.247273	2.203935	10.498388
H	5.116807	2.888487	11.093450
H	4.931722	1.752506	11.060019
7
Bead 4: Energy = 70.605483426
Cu	5.630783	2.306798	9.666127
Cu	6.884768	1.824631	10.477610
Cu	3.018855	4.787038	9.791226
Cu	2.978774	-0.228111	9.925622
C	5.344711	2.267249	10.754575
H	5.252398	3.013934	11.275637
H	5.111512	1.690773	11.234233
7
Bead 5: Energy = 29.6421397858
Cu	5.132312	2.328729	9.647380
Cu	6.971428	2.007528	10.188710
Cu	2.953911	4.865346	9.802937
Cu	2.927260	-0.225373	9.890773
C	5.442149	2.330563	11.010762
H	5.387988	3.139380	11.457823
H	5.291302	1.629040	11.408448
7
Bead 6: Energy = 5.3391460843
Cu	4.633842	2.350661	9.628634
Cu	7.058088	2.190426	9.899810
Cu	2.888968	4.943655	9.814648
Cu	2.875747	-0.222634	9.855924
C	5.539587	2.393877	11.266949
H	5.523579	3.264827	11.640009
H	5.471092	1.567307	11.582663
7
Bead 7: Energy = 0.990725493369
Cu	4.135371	2.372592	9.609887
Cu	7.144748	2.373324	9.610909
Cu	2.824024	5.021964	9.826359
Cu	2.824233	-0.219896	9.821075
C	5.637025	2.457190	11.523136
H	5.659169	3.390274	11.822196
H	5.650882	1.505574	11.756878
