14
Bead 0: Energy = -156.431333055
C 0.000000	0.000000	0.000000
C 1.541527	0.000000	0.000000
C 2.147866	0.000000	1.419070
C 1.879910	-1.306477	2.192078
H 1.748439	0.841594	1.977148
H 3.220734	0.147623	1.342899
H 1.905515	-0.867180	-0.542982
H 1.891363	0.879586	-0.531559
H -0.378587	0.853411	0.553174
H -0.383441	0.057912	-1.012986
H -0.394375	-0.901102	0.453680
H 2.369751	-1.286855	3.159644
H 0.820075	-1.455658	2.358980
H 2.260625	-2.158707	1.638562
14
Bead 1: Energy = -156.355297124
C 0.000000	0.000000	0.000000
C 1.599571	0.000000	0.000000
C 2.207290	0.000000	1.422519
C 1.550189	-1.095205	2.386813
H 1.616112	0.655456	2.064411
H 3.272505	0.104382	1.345349
H 1.418636	-1.030109	-0.312088
H 2.154904	0.681815	-0.615015
H -0.382454	0.864455	0.541625
H -0.382625	0.041436	-1.011738
H -0.390554	-0.891582	0.466220
H 2.030660	-1.088543	3.356755
H 0.498599	-0.903559	2.536022
H 1.659098	-2.092597	1.962403
14
Bead 2: Energy = -156.112635136
C 0.000000	0.000000	0.000000
C 1.832940	0.000000	0.000000
C 2.435326	0.000000	1.410211
C 1.362579	-0.817595	2.651266
H 1.723688	0.407871	2.095533
H 3.498000	0.062310	1.332247
H 1.134387	-0.804688	-0.082961
H 2.535499	0.434388	-0.675958
H -0.385598	0.873679	0.528855
H -0.381425	0.024983	-1.009210
H -0.391372	-0.892297	0.484248
H 1.833617	-0.816837	3.622231
H 0.407403	-0.304461	2.741658
H 1.168955	-1.854548	2.370186
14
Bead 3: Energy = -155.912579939
C 0.000000	0.000000	0.000000
C 2.199352	0.000000	0.000000
C 2.766030	0.000000	1.326477
C 1.271762	-0.338794	2.904299
H 1.985200	0.139857	2.040904
H 3.829494	0.020342	1.247674
H 1.177877	-0.305207	0.055507
H 2.981575	0.148951	-0.709596
H -0.385035	0.874356	0.510870
H -0.381273	0.008485	-1.008953
H -0.387130	-0.881153	0.496049
H 1.737799	-0.339075	3.877044
H 0.516895	0.437386	2.895680
H 0.778664	-1.293918	2.768904
14
Bead 4: Energy = -155.910476437
C 0.000000	0.000000	0.000000
C 2.204171	0.000000	0.000000
C 2.769747	0.000000	1.323993
C 1.269385	0.321285	2.906384
H 1.986909	-0.129920	2.039615
H 3.833033	-0.020380	1.245212
H 1.176468	0.286914	0.057779
H 2.987495	-0.139772	-0.709979
H -0.387010	0.880469	0.496784
H -0.381241	-0.007510	-1.008889
H -0.385112	-0.874981	0.510099
H 1.735319	0.321780	3.879092
H 0.768331	1.272940	2.774500
H 0.521150	-0.460895	2.894803
14
Bead 5: Energy = -156.105420604
C 0.000000	0.000000	0.000000
C 1.846727	0.000000	0.000000
C 2.449748	0.000000	1.412018
C 1.363665	0.813477	2.664393
H 1.734565	-0.400569	2.099046
H 3.512198	-0.062643	1.334097
H 1.136567	0.795924	-0.078329
H 2.552088	-0.427727	-0.677005
H -0.391427	0.892075	0.485113
H -0.381614	-0.024144	-1.009777
H -0.385597	-0.874188	0.528141
H 1.834800	0.813012	3.635931
H 1.163585	1.849994	2.386148
H 0.411474	0.293931	2.753265
14
Bead 6: Energy = -156.352843389
C 0.000000	0.000000	0.000000
C 1.601889	0.000000	0.000000
C 2.208764	0.000000	1.420986
C 1.547341	1.092708	2.387536
H 1.613809	-0.651593	2.064776
H 3.272981	-0.105048	1.343875
H 1.412229	1.030408	-0.308702
H 2.159531	-0.678006	-0.615528
H -0.390746	0.891557	0.467018
H -0.382741	-0.040750	-1.012125
H -0.382348	-0.864765	0.540966
H 2.027906	1.086339	3.357869
H 1.652885	2.091114	1.964732
H 0.495981	0.897378	2.536210
14
Bead 7: Energy = -156.431333077
C 0.000000	0.000000	0.000000
C 1.541544	0.000000	0.000000
C 2.147601	0.000000	1.419164
C 1.881170	1.307377	2.191263
H 1.746998	-0.840767	1.977640
H 3.220273	-0.148991	1.343164
H 1.905639	0.867167	-0.542885
H 1.891362	-0.879636	-0.531478
H -0.394386	0.900866	0.454094
H -0.383397	-0.057451	-1.013002
H -0.378491	-0.853693	0.552765
H 2.371004	1.287863	3.158811
H 2.262894	2.158723	1.637102
H 0.821549	1.457929	2.358106
