3
Bead 0: Energy = 0.0
H 0.000000	0.000000	0.000000
O 0.000000	0.000000	0.000000
H nan	nan	nan
3
Bead 1: Energy = 0.0
H 0.000000	0.000000	0.000000
O 0.324000	0.000000	0.000000
H 0.000005	0.000000	0.001832
3
Bead 2: Energy = 0.0
H 0.000000	0.000000	0.000000
O 0.660000	0.000000	0.000000
H 0.000044	0.000000	0.007602
3
Bead 3: Energy = 0.0
H 0.000000	0.000000	0.000000
O 0.990000	0.000000	0.000000
H 0.000148	0.000000	0.017105
3
Bead 4: Energy = 0.0
H 0.000000	0.000000	0.000000
O 1.326000	0.000000	0.000000
H 0.000355	0.000000	0.030685
3
Bead 5: Energy = 0.0
H 0.000000	0.000000	0.000000
O 1.656000	0.000000	0.000000
H 0.000692	0.000000	0.047856
3
Bead 6: Energy = 0.0
H 0.000000	0.000000	0.000000
O 1.992000	0.000000	0.000000
H 0.001204	0.000000	0.069242
3
Bead 7: Energy = 0.0
H 0.000000	0.000000	0.000000
O 2.328000	0.000000	0.000000
H 0.001921	0.000000	0.094564
3
Bead 8: Energy = 0.0
H 0.000000	0.000000	0.000000
O 2.664000	0.000000	0.000000
H 0.002879	0.000000	0.123820
3
Bead 9: Energy = 0.0
H 0.000000	0.000000	0.000000
O 3.000000	0.000000	0.000000
H 0.004111	0.000000	0.157008
