3
Bead 0: Energy = -1.00336898873
H 0.000000	0.000000	0.000000
O 0.000000	0.000000	0.000000
H nan	nan	nan
3
Bead 1: Energy = -0.730912319887
H 0.000000	0.000000	0.000000
O 0.573373	0.000000	0.000000
H 0.000013	0.000000	0.003813
3
Bead 2: Energy = -0.422664635517
H 0.000000	0.000000	0.000000
O 0.132663	0.000000	0.000000
H 0.000003	0.000000	0.000893
3
Bead 3: Energy = -0.456642790496
H 0.000000	0.000000	0.000000
O 0.474496	0.000000	0.000000
H 0.000067	0.000000	0.007985
3
Bead 4: Energy = -0.372612744294
H 0.000000	0.000000	0.000000
O 0.570782	0.000000	0.000000
H 0.000212	0.000000	0.015563
3
Bead 5: Energy = -0.0680018493242
H 0.000000	0.000000	0.000000
O 0.805741	0.000000	0.000000
H 0.000647	0.000000	0.032293
3
Bead 6: Energy = -0.126875071458
H 0.000000	0.000000	0.000000
O 1.439439	0.000000	0.000000
H 0.001478	0.000000	0.065220
3
Bead 7: Energy = -0.556494647696
H 0.000000	0.000000	0.000000
O 2.049443	0.000000	0.000000
H 0.001852	0.000000	0.087099
3
Bead 8: Energy = -0.520942788628
H 0.000000	0.000000	0.000000
O 2.749389	0.000000	0.000000
H 0.002801	0.000000	0.124071
3
Bead 9: Energy = -0.820000895403
H 0.000000	0.000000	0.000000
O 3.000000	0.000000	0.000000
H 0.004111	0.000000	0.157008
