3
Bead 0: Energy = -1.00336898873
H 0.000000	0.000000	0.000000
O 0.000000	0.000000	0.000000
H nan	nan	nan
3
Bead 1: Energy = -0.883743494882
H 0.000000	0.000000	0.000000
O 0.064539	0.000000	0.000000
H 0.000003	0.000000	0.000583
3
Bead 2: Energy = -0.578340629321
H 0.000000	0.000000	0.000000
O 0.586541	0.000000	0.000000
H 0.000081	0.000000	0.009758
3
Bead 3: Energy = -0.394951470914
H 0.000000	0.000000	0.000000
O 0.575460	0.000000	0.000000
H 0.000212	0.000000	0.015636
3
Bead 4: Energy = -0.469208429043
H 0.000000	0.000000	0.000000
O 0.779253	0.000000	0.000000
H 0.000559	0.000000	0.029498
3
Bead 5: Energy = -0.253705680364
H 0.000000	0.000000	0.000000
O 1.383380	0.000000	0.000000
H 0.001490	0.000000	0.064195
3
Bead 6: Energy = -0.0822558243014
H 0.000000	0.000000	0.000000
O 1.889188	0.000000	0.000000
H 0.001526	0.000000	0.075909
3
Bead 7: Energy = -0.269412469407
H 0.000000	0.000000	0.000000
O 2.480500	0.000000	0.000000
H 0.002681	0.000000	0.115292
3
Bead 8: Energy = -0.768570540291
H 0.000000	0.000000	0.000000
O 2.389291	0.000000	0.000000
H 0.002525	0.000000	0.109818
3
Bead 9: Energy = -0.820000895403
H 0.000000	0.000000	0.000000
O 3.000000	0.000000	0.000000
H 0.004111	0.000000	0.157008
