3
Bead 0: Energy = -1.00336898873
H 0.000000	0.000000	0.000000
O 0.000000	0.000000	0.000000
H nan	nan	nan
3
Bead 1: Energy = -0.829567754522
H 0.000000	0.000000	0.000000
O 0.314717	0.000000	0.000000
H 0.000005	0.000000	0.001816
3
Bead 2: Energy = -0.50717145823
H 0.000000	0.000000	0.000000
O 0.484404	0.000000	0.000000
H 0.000046	0.000000	0.006694
3
Bead 3: Energy = -0.312079258372
H 0.000000	0.000000	0.000000
O 0.780450	0.000000	0.000000
H 0.000160	0.000000	0.015790
3
Bead 4: Energy = -0.17184561414
H 0.000000	0.000000	0.000000
O 1.115917	0.000000	0.000000
H 0.000387	0.000000	0.029403
3
Bead 5: Energy = -0.0486690246321
H 0.000000	0.000000	0.000000
O 1.483797	0.000000	0.000000
H 0.000751	0.000000	0.047207
3
Bead 6: Energy = -0.0652985091457
H 0.000000	0.000000	0.000000
O 1.853314	0.000000	0.000000
H 0.001289	0.000000	0.069102
3
Bead 7: Energy = -0.291398086404
H 0.000000	0.000000	0.000000
O 2.251292	0.000000	0.000000
H 0.001973	0.000000	0.094233
3
Bead 8: Energy = -0.654441282455
H 0.000000	0.000000	0.000000
O 2.673028	0.000000	0.000000
H 0.002845	0.000000	0.123299
3
Bead 9: Energy = -0.820000895403
H 0.000000	0.000000	0.000000
O 3.000000	0.000000	0.000000
H 0.004111	0.000000	0.157008
