 Entering Gaussian System, Link 0=g03
 Input=gaussjob.com
 Output=gaussjob.log
 Initial command:
 /usr/local/g03/l1.exe /scratch/Gau-11663.inp -scrdir=/scratch/
 Entering Link 1 = /usr/local/g03/l1.exe PID=     11664.
  
 Copyright (c) 1988,1990,1992,1993,1995,1998,2003,2004, Gaussian, Inc.
                  All Rights Reserved.
  
 This is the Gaussian(R) 03 program.  It is based on the
 the Gaussian(R) 98 system (copyright 1998, Gaussian, Inc.),
 the Gaussian(R) 94 system (copyright 1995, Gaussian, Inc.),
 the Gaussian 92(TM) system (copyright 1992, Gaussian, Inc.),
 the Gaussian 90(TM) system (copyright 1990, Gaussian, Inc.),
 the Gaussian 88(TM) system (copyright 1988, Gaussian, Inc.),
 the Gaussian 86(TM) system (copyright 1986, Carnegie Mellon
 University), and the Gaussian 82(TM) system (copyright 1983,
 Carnegie Mellon University). Gaussian is a federally registered
 trademark of Gaussian, Inc.
  
 This software contains proprietary and confidential information,
 including trade secrets, belonging to Gaussian, Inc.
  
 This software is provided under written license and may be
 used, copied, transmitted, or stored only in accord with that
 written license.
  
 The following legend is applicable only to US Government
 contracts under FAR:
  
                    RESTRICTED RIGHTS LEGEND
  
 Use, reproduction and disclosure by the US Government is
 subject to restrictions as set forth in subparagraphs (a)
 and (c) of the Commercial Computer Software - Restricted
 Rights clause in FAR 52.227-19.
  
 Gaussian, Inc.
 340 Quinnipiac St., Bldg. 40, Wallingford CT 06492
  
  
 ---------------------------------------------------------------
 Warning -- This program may not be used in any manner that
 competes with the business of Gaussian, Inc. or will provide
 assistance to any competitor of Gaussian, Inc.  The licensee
 of this program is prohibited from giving any competitor of
 Gaussian, Inc. access to this program.  By using this program,
 the user acknowledges that Gaussian, Inc. is engaged in the
 business of creating and licensing software in the field of
 computational chemistry and represents and warrants to the
 licensee that it is not a competitor of Gaussian, Inc. and that
 it will not use this program in any manner prohibited above.
 ---------------------------------------------------------------
  

 Cite this work as:
 Gaussian 03, Revision D.01,
 M. J. Frisch, G. W. Trucks, H. B. Schlegel, G. E. Scuseria, 
 M. A. Robb, J. R. Cheeseman, J. A. Montgomery, Jr., T. Vreven, 
 K. N. Kudin, J. C. Burant, J. M. Millam, S. S. Iyengar, J. Tomasi, 
 V. Barone, B. Mennucci, M. Cossi, G. Scalmani, N. Rega, 
 G. A. Petersson, H. Nakatsuji, M. Hada, M. Ehara, K. Toyota, 
 R. Fukuda, J. Hasegawa, M. Ishida, T. Nakajima, Y. Honda, O. Kitao, 
 H. Nakai, M. Klene, X. Li, J. E. Knox, H. P. Hratchian, J. B. Cross, 
 V. Bakken, C. Adamo, J. Jaramillo, R. Gomperts, R. E. Stratmann, 
 O. Yazyev, A. J. Austin, R. Cammi, C. Pomelli, J. W. Ochterski, 
 P. Y. Ayala, K. Morokuma, G. A. Voth, P. Salvador, J. J. Dannenberg, 
 V. G. Zakrzewski, S. Dapprich, A. D. Daniels, M. C. Strain, 
 O. Farkas, D. K. Malick, A. D. Rabuck, K. Raghavachari, 
 J. B. Foresman, J. V. Ortiz, Q. Cui, A. G. Baboul, S. Clifford, 
 J. Cioslowski, B. B. Stefanov, G. Liu, A. Liashenko, P. Piskorz, 
 I. Komaromi, R. L. Martin, D. J. Fox, T. Keith, M. A. Al-Laham, 
 C. Y. Peng, A. Nanayakkara, M. Challacombe, P. M. W. Gill, 
 B. Johnson, W. Chen, M. W. Wong, C. Gonzalez, and J. A. Pople, 
 Gaussian, Inc., Wallingford CT, 2004.
 
 ******************************************
 Gaussian 03:  AM64L-G03RevD.01 13-Oct-2005
                11-Nov-2009 
 ******************************************
 %chk=gaussjob.chk
 %nprocs=1
 Will use up to    1 processors via shared memory.
 ----------------
 # HF/3-21G force
 ----------------
 1/10=7,30=1,38=1/1,3;
 2/17=6,18=5,40=1/2;
 3/5=5,11=9,16=1,25=1,30=1/1,2,3;
 4//1;
 5/5=2,38=5/2;
 6/7=2,8=2,9=2,10=2,28=1/1;
 7/29=1/1,2,3,16;
 1/10=7,30=1/3;
 99//99;
 --------------------------------
 Generated by ASE Gaussian driver
 --------------------------------
 Symbolic Z-matrix:
 Charge =  0 Multiplicity = 1
 H                     0.        0.        0. 
 O                    -0.05065  -0.53793   0.94666 
 H                    -0.72522  -0.19868   1.73276 
 H                     0.        0.        3. 
 O                     0.92736  -0.49153   3.29411 
 H                     1.23356  -0.50013   4.34018 
 H                     0.        0.        6. 
 O                    -0.14632  -0.72655   6.79926 
 H                    -0.84539  -0.51561   7.60853 
 H                     0.        3.        0. 
 O                    -0.46419   2.48914   0.84359 
 H                    -0.65093   3.02717   1.77298 
 H                     0.        3.        3. 
 O                     0.98567   2.90391   3.45532 
 H                     1.77254   3.61758   3.21116 
 H                     0.        3.        6. 
 O                    -0.16818   2.37932   6.88009 
 H                    -0.71211   2.77977   7.73559 
 H                     0.        6.        0. 
 O                    -0.81756   5.36697   0.34492 
 H                    -1.3457    5.61017   1.26689 
 H                     0.        6.        3. 
 O                     0.02764   6.23847   4.06323 
 H                     0.24617   7.25514   4.38994 
 H                     0.        6.        6. 
 O                     0.61113   6.62409   6.65203 
 H                     0.92631   7.61421   6.32276 
 H                     3.        0.        0. 
 O                     1.96281  -0.23981   0.23415 
 H                     1.61803  -0.22376   1.26807 
 H                     3.        0.        3. 
 O                     2.23945  -0.4678    3.62516 
 H                     1.93905  -0.0001    4.56277 
 H                     3.        0.        6. 
 O                     2.85962  -0.31798   7.03309 
 H                     3.31376   0.24866   7.84597 
 H                     3.        3.        0. 
 O                     3.49988   2.98552   0.96851 
 H                     4.19991   3.77763   1.23426 
 H                     3.        3.        3. 
 O                     2.62192   2.49317   3.88785 
 H                     1.78205   2.91336   4.44118 
 H                     3.        3.        6. 
 O                     2.95983   3.91078   6.59747 
 H                     2.57866   4.8342    6.16147 
 H                     3.        6.        0. 
 O                     2.2524    6.45803   0.64761 
 H                     1.91657   7.47768   0.45884 
 

 GradGradGradGradGradGradGradGradGradGradGradGradGradGradGradGradGradGrad
 Berny optimization.
 Initialization pass.
 Trust Radius=3.00D-01 FncErr=1.00D-07 GrdErr=1.00D-07
 Number of steps in this run=   2 maximum allowed number of steps=   2.
 GradGradGradGradGradGradGradGradGradGradGradGradGradGradGradGradGradGrad

                          Input orientation:                          
 ---------------------------------------------------------------------
 Center     Atomic     Atomic              Coordinates (Angstroms)
 Number     Number      Type              X           Y           Z
 ---------------------------------------------------------------------
    1          1             0        0.000000    0.000000    0.000000
    2          8             0       -0.050650   -0.537931    0.946660
    3          1             0       -0.725220   -0.198675    1.732765
    4          1             0        0.000000    0.000000    3.000000
    5          8             0        0.927363   -0.491526    3.294109
    6          1             0        1.233559   -0.500134    4.340183
    7          1             0        0.000000    0.000000    6.000000
    8          8             0       -0.146323   -0.726548    6.799261
    9          1             0       -0.845388   -0.515606    7.608527
   10          1             0        0.000000    3.000000    0.000000
   11          8             0       -0.464188    2.489139    0.843594
   12          1             0       -0.650927    3.027170    1.772976
   13          1             0        0.000000    3.000000    3.000000
   14          8             0        0.985673    2.903911    3.455320
   15          1             0        1.772538    3.617584    3.211160
   16          1             0        0.000000    3.000000    6.000000
   17          8             0       -0.168181    2.379315    6.880094
   18          1             0       -0.712110    2.779767    7.735594
   19          1             0        0.000000    6.000000    0.000000
   20          8             0       -0.817561    5.366974    0.344922
   21          1             0       -1.345698    5.610166    1.266893
   22          1             0        0.000000    6.000000    3.000000
   23          8             0        0.027643    6.238470    4.063235
   24          1             0        0.246174    7.255137    4.389935
   25          1             0        0.000000    6.000000    6.000000
   26          8             0        0.611125    6.624086    6.652029
   27          1             0        0.926306    7.614209    6.322762
   28          1             0        3.000000    0.000000    0.000000
   29          8             0        1.962809   -0.239805    0.234155
   30          1             0        1.618034   -0.223757    1.268066
   31          1             0        3.000000    0.000000    3.000000
   32          8             0        2.239453   -0.467801    3.625165
   33          1             0        1.939045   -0.000102    4.562775
   34          1             0        3.000000    0.000000    6.000000
   35          8             0        2.859616   -0.317983    7.033092
   36          1             0        3.313761    0.248655    7.845972
   37          1             0        3.000000    3.000000    0.000000
   38          8             0        3.499876    2.985523    0.968511
   39          1             0        4.199909    3.777628    1.234262
   40          1             0        3.000000    3.000000    3.000000
   41          8             0        2.621916    2.493168    3.887848
   42          1             0        1.782054    2.913357    4.441177
   43          1             0        3.000000    3.000000    6.000000
   44          8             0        2.959830    3.910776    6.597473
   45          1             0        2.578665    4.834201    6.161470
   46          1             0        3.000000    6.000000    0.000000
   47          8             0        2.252401    6.458032    0.647613
   48          1             0        1.916569    7.477679    0.458837
 ---------------------------------------------------------------------
                    Distance matrix (angstroms):
                    1          2          3          4          5
     1  H    0.000000
     2  O    1.090000   0.000000
     3  H    1.888886   1.090000   0.000000
     4  H    3.000000   2.123239   1.473533   0.000000
     5  O    3.457275   2.543459   2.292289   1.090000   0.000000
     6  H    4.539712   3.628584   3.275106   1.888886   1.090000
     7  H    6.000000   5.082144   4.332980   3.000000   2.902317
     8  O    6.839535   5.856421   5.126710   3.870874   3.673435
     9  H    7.672693   6.709142   5.885530   4.713709   4.664486
    10  H    3.000000   3.662743   3.709440   4.242641   4.888958
    11  O    2.668883   3.056925   2.843081   3.325864   4.101927
    12  H    3.568040   3.708514   3.226951   3.330623   4.145608
    13  H    4.242641   4.090933   3.516156   3.000000   3.624535
    14  O    4.619901   4.383335   3.939593   3.100253   3.399762
    15  H    5.151733   5.071517   4.794610   4.034029   4.195949
    16  H    6.708204   6.168936   5.382078   4.242641   4.513602
    17  O    7.281835   6.612850   5.783712   4.554619   4.722419
    18  H    8.250674   7.585136   6.701138   5.537152   5.754652
    19  H    6.000000   6.606306   6.477036   6.708204   7.338329
    20  O    5.439833   5.984826   5.736818   6.043364   6.787082
    21  H    5.906766   6.291168   5.860433   6.023996   6.819608
    22  H    6.708204   6.852979   6.368313   6.000000   6.564024
    23  O    7.445075   7.459141   6.887288   6.328486   6.833293
    24  H    8.483463   8.525031   7.972670   7.391179   7.853384
    25  H    8.485281   8.263375   7.560345   6.708204   7.093783
    26  O    9.407523   9.180615   8.516752   7.588762   7.874489
    27  H    9.940399   9.813986   9.210688   8.359125   8.653074
    28  H    3.000000   3.239136   4.113297   4.242641   3.922828
    29  O    1.991220   2.156516   3.077828   3.400004   3.240190
    30  H    2.067872   1.728153   2.389019   2.380692   2.157215
    31  H    4.242641   3.716456   3.939876   3.000000   2.150331
    32  O    4.286701   3.524753   3.527448   2.371670   1.353418
    33  H    4.957702   4.162264   3.891876   2.490414   1.695439
    34  H    6.708204   5.927233   5.667983   4.242641   3.443729
    35  O    7.598875   6.750014   6.399903   4.954226   4.212329
    36  H    8.520688   7.716120   7.340625   5.875908   5.192516
    37  H    4.242641   4.766507   5.206848   5.196152   5.228550
    38  O    4.701116   5.002144   5.345525   5.028859   4.910815
    39  H    5.782137   6.064159   6.349519   5.918407   5.760053
    40  H    5.196152   5.102904   5.070964   4.242641   4.071005
    41  O    5.310903   4.998076   4.805593   3.725400   3.483164
    42  H    5.602447   5.242313   4.827697   3.706798   3.693168
    43  H    7.348469   6.881837   6.505235   5.196152   4.879388
    44  O    8.220791   7.796517   7.357484   6.082481   5.867146
    45  H    8.245164   7.935197   7.473883   6.325654   6.269922
    46  H    6.708204   7.276481   7.436620   7.348469   7.568810
    47  O    6.870145   7.371362   7.372621   7.232788   7.553544
    48  H    7.733011   8.267886   8.217564   8.126896   8.516192
                    6          7          8          9         10
     6  H    0.000000
     7  H    2.127626   0.000000
     8  O    2.828852   1.090000   0.000000
     9  H    3.873543   1.888886   1.090000   0.000000
    10  H    5.710498   6.708204   7.754903   8.424004   0.000000
    11  O    4.903492   5.744546   6.775814   7.412026   1.090000
    12  H    4.752231   5.239770   6.293533   6.829548   1.888886
    13  H    3.945718   4.242641   5.323810   5.857703   3.000000
    14  O    3.525897   3.984927   5.063949   5.682870   3.594443
    15  H    4.303578   4.899636   5.952140   6.578269   3.719523
    16  H    4.065415   3.000000   3.814104   3.957465   6.000000
    17  O    4.087450   2.542438   3.106992   3.061012   6.910082
    18  H    5.106094   3.353579   3.673020   3.300514   7.771423
    19  H    7.912685   8.485281   9.565448  10.052735   3.000000
    20  O    7.388650   7.839178   8.901688   9.346950   2.527834
    21  H    7.309818   7.462384   8.497031   8.831292   3.198263
    22  H    6.750518   6.708204   7.726722   8.025355   4.242641
    23  O    6.851256   6.532253   7.485157   7.677814   5.195992
    24  H    7.818032   7.435719   8.346627   8.481467   6.118686
    25  H    6.821173   6.000000   6.775446   6.764256   6.708204
    26  O    7.515755   6.684096   7.391023   7.349254   7.599801
    27  H    8.358683   7.677135   8.422934   8.419382   7.882023
    28  H    4.712498   6.708204   7.527096   8.540641   4.242641
    29  O    4.178402   6.095498   6.912740   7.895784   3.795232
    30  H    3.108393   5.005926   5.827510   6.808455   3.823433
    31  H    2.273002   4.242641   4.986141   6.024233   5.196152
    32  O    1.234553   3.297549   3.979166   5.038423   5.493870
    33  H    0.892912   2.413610   3.142985   4.158776   5.794775
    34  H    2.474963   3.000000   3.326565   4.200026   7.348469
    35  O    3.151032   3.057090   3.042577   3.754629   8.285578
    36  H    4.144694   3.801376   3.744169   4.235445   8.950430
    37  H    5.848798   7.348469   8.367584   9.221506   3.000000
    38  O    5.352959   6.817504   7.814850   8.673467   3.631440
    39  H    6.061784   7.390668   8.375354   9.193375   4.446048
    40  H    4.143349   5.196152   6.182304   6.955934   4.242641
    41  O    3.330465   4.189453   5.148402   5.909177   4.716639
    42  H    3.458752   3.754104   4.746378   5.356617   4.786155
    43  H    4.257493   4.242641   4.942198   5.452876   6.708204
    44  O    5.247046   4.940824   5.585130   5.924085   7.288124
    45  H    5.794957   5.481340   6.225292   6.514488   6.926581
    46  H    8.013067   9.000000  10.068552  10.729856   4.242641
    47  O    7.942870   8.684903   9.757809  10.328710   4.177404
    48  H    8.898137   9.502285  10.571937  11.074254   4.892175
                   11         12         13         14         15
    11  O    0.000000
    12  H    1.090000   0.000000
    13  H    2.264186   1.389255   0.000000
    14  O    3.015833   2.350305   1.090000   0.000000
    15  H    3.446985   2.879261   1.888886   1.090000   0.000000
    16  H    5.202401   4.276935   3.000000   2.730600   3.361685
    17  O    6.044751   5.170629   3.933022   3.651802   4.331371
    18  H    6.902579   5.968062   4.793898   4.606367   5.229332
    19  H    3.640503   3.522055   4.242641   4.743053   4.373711
    20  O    2.942019   2.746232   3.649714   4.358085   4.240790
    21  H    3.270634   2.722260   3.409916   4.189071   4.180186
    22  H    4.146288   3.281313   3.000000   3.280950   2.976976
    23  O    4.966434   4.002273   3.408654   3.522309   3.261861
    24  H    5.982966   5.052620   4.483158   4.511488   4.117170
    25  H    6.255409   5.208565   4.242641   4.127071   4.073748
    26  O    7.210548   6.191586   5.181196   4.919242   4.714607
    27  H    7.630275   6.650499   5.761052   5.514767   5.135289
    28  H    4.348341   5.063247   5.196152   4.942616   4.990503
    29  O    3.702549   4.457882   4.690294   4.605828   4.876291
    30  H    3.446104   3.996454   4.001280   3.868627   4.307596
    31  H    4.779801   4.898838   4.242641   3.563360   3.825985
    32  O    4.877531   4.898950   4.175120   3.601285   4.132768
    33  H    5.079779   4.863672   3.899073   3.250948   3.865518
    34  H    6.692155   6.353011   5.196152   4.354952   4.729820
    35  O    7.565547   7.154214   5.954179   5.166499   5.592636
    36  H    8.265953   7.766606   6.483391   5.634555   5.933509
    37  H    3.601837   4.058750   4.242641   4.000748   3.492796
    38  O    3.996975   4.228246   4.046763   3.537245   2.900461
    39  H    4.854547   4.938017   4.621880   4.003474   3.134625
    40  H    4.112380   3.851700   3.000000   2.067381   1.390202
    41  O    4.334921   3.933108   2.814178   1.741575   1.563221
    42  H    4.262414   3.612706   2.293516   1.267370   1.417380
    43  H    6.232985   5.585493   4.242641   3.246867   3.108971
    44  O    6.844858   6.090492   4.746780   3.845023   3.600380
    45  H    6.560341   5.740601   4.473108   3.686040   3.291554
    46  H    5.003838   5.030948   5.196152   5.057917   4.182597
    47  O    4.813562   4.633204   4.750266   4.703148   3.856189
    48  H    5.540900   5.303398   5.493665   5.546606   4.743034
                   16         17         18         19         20
    16  H    0.000000
    17  O    1.090000   0.000000
    18  H    1.888886   1.090000   0.000000
    19  H    6.708204   7.776460   8.409305   0.000000
    20  O    6.184729   7.215003   7.831142   1.090000   0.000000
    21  H    5.570114   6.582778   7.089195   1.888886   1.090000
    22  H    4.242641   5.309687   5.770862   3.000000   2.849310
    23  O    3.773528   4.781853   5.098636   4.070320   3.911486
    24  H    4.556215   5.490557   5.669274   4.572472   4.588989
    25  H    3.000000   3.729907   3.726833   6.000000   5.748829
    26  O    3.732642   4.321737   4.207595   6.709132   6.587949
    27  H    4.717324   5.377047   5.296445   6.590981   6.620098
    28  H    7.348469   7.939409   9.019217   6.708204   6.595237
    29  O    6.898835   7.454490   8.517312   6.545427   6.259289
    30  H    5.949945   6.439053   7.501976   6.554478   6.167706
    31  H    5.196152   5.545597   6.628176   7.348469   7.101241
    32  O    4.762419   4.949479   6.012824   7.745283   7.358663
    33  H    3.850470   3.933446   4.982276   7.783317   7.361702
    34  H    4.242641   4.058704   4.951682   9.000000   8.680904
    35  O    4.500410   4.057879   4.779831   9.877181   9.516931
    36  H    4.685993   4.194825   4.756716  10.277075   9.976511
    37  H    6.708204   7.599889   8.582988   4.242641   4.505032
    38  O    6.129047   6.983476   7.973492   4.719557   4.969953
    39  H    6.399704   7.273989   8.209201   4.909336   5.337786
    40  H    4.242641   5.047549   6.021139   5.196152   5.217833
    41  O    3.404778   4.092816   5.099316   5.855568   5.713238
    42  H    2.369210   3.168112   4.134233   5.694483   5.436685
    43  H    3.000000   3.346220   4.103724   7.348469   7.221928
    44  O    3.153900   3.494239   4.007199   7.526759   7.448731
    45  H    3.168577   3.753405   4.186617   6.780288   6.756510
    46  H    7.348469   8.395381   9.164555   3.000000   3.885031
    47  O    6.758650   7.831920   8.518065   2.387992   3.272110
    48  H    7.377489   8.460026   9.051604   2.463190   3.455940
                   21         22         23         24         25
    21  H    0.000000
    22  H    2.228572   0.000000
    23  O    3.178106   1.090000   0.000000
    24  H    3.872128   1.888886   1.090000   0.000000
    25  H    4.936109   3.000000   1.951587   2.056278   0.000000
    26  O    5.818667   3.755034   2.681606   2.376654   1.090000
    27  H    5.894065   3.808472   2.793871   2.080224   1.888886
    28  H    7.208611   7.348469   8.016439   8.915834   9.000000
    29  O    6.799627   7.101950   7.770120   8.740223   8.719677
    30  H    6.543575   6.659789   7.218219   8.219606   7.984008
    31  H    7.304979   6.708204   6.991701   7.883685   7.348469
    32  O    7.440190   6.873022   7.075173   8.012602   7.244822
    33  H    7.288860   6.496413   6.543911   7.452125   6.467359
    34  H    8.530027   7.348469   7.176662   7.925457   6.708204
    35  O    9.277751   8.022477   7.734804   8.436142   7.011533
    36  H    9.681975   8.218420   7.809325   8.393156   6.889600
    37  H    5.225234   5.196152   5.986023   6.705317   7.348469
    38  O    5.518819   5.046102   5.675859   6.365714   6.830233
    39  H    5.840635   5.069123   5.609513   6.138678   6.729817
    40  H    5.357398   4.242641   4.522506   5.255632   5.196152
    41  O    5.685688   4.467728   4.559419   5.345333   4.861430
    42  H    5.208809   3.844486   3.778515   4.605715   3.890118
    43  H    6.935442   5.196152   4.803504   5.318087   4.242641
    44  O    7.059786   5.105611   4.520868   4.839618   3.671843
    45  H    6.321363   4.243052   3.589188   3.799970   2.834550
    46  H    4.543355   4.242641   5.040005   5.332022   6.708204
    47  O    3.748160   3.288895   4.082184   4.320336   5.825045
    48  H    3.844859   3.509171   4.253865   4.277065   6.046591
                   26         27         28         29         30
    26  O    0.000000
    27  H    1.090000   0.000000
    28  H    9.686833  10.112057   0.000000
    29  O    9.493639   9.991547   1.090000   0.000000
    30  H    8.768916   9.352120   1.888886   1.090000   0.000000
    31  H    7.932374   8.562543   3.000000   2.963641   2.226992
    32  O    7.880877   8.620921   3.733509   3.409906   2.449823
    33  H    7.071649   7.880414   4.684500   4.335317   3.317857
    34  H    7.071802   7.898137   6.000000   5.863296   4.934683
    35  O    7.307068   8.195238   7.041676   6.858274   5.897960
    36  H    7.026796   7.891229   7.856180   7.746188   6.809370
    37  H    7.942935   8.097435   3.000000   3.409829   3.729669
    38  O    7.340736   7.531002   3.178245   3.647547   3.732364
    39  H    7.094639   7.164403   4.151344   4.705805   4.762175
    40  H    5.672569   6.052428   4.242641   4.384290   3.911782
    41  O    5.361760   5.918527   4.634026   4.610102   3.905473
    42  H    4.475317   5.135239   5.449320   5.260621   4.465089
    43  H    4.389290   5.069054   6.708204   6.694555   5.890131
    44  O    3.589073   4.233923   7.669578   7.662453   6.877307
    45  H    2.704727   3.238016   7.842878   7.826742   7.102898
    46  H    7.095471   6.847130   6.000000   6.329752   6.500229
    47  O    6.226908   5.941598   6.533337   6.716833   6.740452
    48  H    6.386583   5.948519   7.569679   7.720893   7.749587
                   31         32         33         34         35
    31  H    0.000000
    32  O    1.090000   0.000000
    33  H    1.888886   1.090000   0.000000
    34  H    3.000000   2.537146   1.786404   0.000000
    35  O    4.048043   3.467134   2.655366   1.090000   0.000000
    36  H    4.862481   4.413917   3.568068   1.888886   1.090000
    37  H    4.242641   5.074041   5.562836   6.708204   7.777731
    38  O    3.645569   4.535628   4.926345   5.871891   6.935577
    39  H    4.339134   5.251997   5.519216   6.198590   7.224738
    40  H    3.000000   3.604845   3.545208   4.242641   5.224419
    41  O    2.673407   2.997101   2.671747   3.289380   4.225119
    42  H    3.471027   3.508178   2.920218   3.521501   4.280271
    43  H    4.242641   4.271290   3.491683   3.000000   3.477930
    44  O    5.313906   5.340926   4.525148   3.956356   4.252318
    45  H    5.791538   5.887201   5.131805   4.855213   5.232940
    46  H    6.708204   7.453368   7.612211   8.485281   9.455210
    47  O    6.913668   7.538776   7.558715   8.420993   9.330457
    48  H    7.971639   8.559237   8.529948   9.369845  10.241217
                   36         37         38         39         40
    36  H    0.000000
    37  H    8.320314   0.000000
    38  O    7.404361   1.090000   0.000000
    39  H    7.546763   1.888886   1.090000   0.000000
    40  H    5.581379   3.000000   2.092136   2.272074   0.000000
    41  O    4.602525   3.938932   3.088001   3.343863   1.090000
    42  H    4.586872   4.605969   3.874987   4.108198   1.888886
    43  H    3.328056   6.000000   5.056280   4.975615   3.000000
    44  O    3.885247   6.660163   5.730004   5.506320   3.711191
    45  H    4.940157   6.442479   5.588655   5.293596   3.679227
    46  H    9.733226   3.000000   3.205458   2.811071   4.242641
    47  O    9.565523   3.596706   3.703713   3.364745   4.248601
    48  H   10.429799   4.629683   4.790208   4.416481   5.261268
                   41         42         43         44         45
    41  O    0.000000
    42  H    1.090000   0.000000
    43  H    2.204771   1.980108   0.000000
    44  O    3.076665   2.651719   1.090000   0.000000
    45  H    3.263689   2.698822   1.888886   1.090000   0.000000
    46  H    5.249398   5.543899   6.708204   6.920485   6.284928
    47  O    5.133791   5.213164   6.415991   6.510745   5.757247
    48  H    6.091058   6.058892   7.206103   7.175935   6.320314
                   46         47         48
    46  H    0.000000
    47  O    1.090000   0.000000
    48  H    1.888886   1.090000   0.000000
 Stoichiometry    H32O16
 Framework group  C1[X(H32O16)]
 Deg. of freedom   138
 Full point group                 C1
 Largest Abelian subgroup         C1      NOp   1
 Largest concise Abelian subgroup C1      NOp   1
                         Standard orientation:                         
 ---------------------------------------------------------------------
 Center     Atomic     Atomic              Coordinates (Angstroms)
 Number     Number      Type              X           Y           Z
 ---------------------------------------------------------------------
    1          1             0       -0.139741   -4.272312   -1.314632
    2          8             0       -1.099196   -3.765324   -1.417150
    3          1             0       -1.194940   -2.905265   -2.079896
    4          1             0       -1.760898   -1.748536   -1.363678
    5          8             0       -2.393283   -1.787909   -0.476751
    6          1             0       -2.985975   -0.919572   -0.188988
    7          1             0       -3.382055    0.775240   -1.412723
    8          8             0       -4.413767    1.058544   -1.621073
    9          1             0       -4.628046    1.869341   -2.317344
   10          1             0        2.376749   -2.651877   -1.110993
   11          8             0        1.522964   -2.207474   -1.622517
   12          1             0        1.484367   -1.130720   -1.787473
   13          1             0        0.755592   -0.128101   -1.160039
   14          8             0        0.363951    0.180400   -0.190738
   15          1             0        1.042659    0.342413    0.646643
   16          1             0       -0.865565    2.395674   -1.209084
   17          8             0       -1.850716    2.804664   -1.433376
   18          1             0       -1.941241    3.753155   -1.962780
   19          1             0        4.893239   -1.031442   -0.907355
   20          8             0        4.229753   -1.064422   -1.771529
   21          1             0        3.970353   -0.145317   -2.296942
   22          1             0        3.272082    1.492333   -0.956400
   23          8             0        2.895738    2.514962   -0.930019
   24          1             0        3.557595    3.333930   -0.648352
   25          1             0        1.650925    4.016109   -1.005446
   26          8             0        1.781785    4.887696   -0.364109
   27          1             0        2.769480    5.138267    0.022895
   28          1             0       -0.337545   -4.341214    1.678047
   29          8             0       -0.596848   -4.249937    0.623281
   30          1             0       -1.119365   -3.363564    0.263533
   31          1             0       -1.958703   -1.817439    1.629001
   32          8             0       -2.638792   -1.526726    0.828336
   33          1             0       -2.733335   -0.478428    0.545080
   34          1             0       -3.579860    0.706337    1.579955
   35          8             0       -4.395605    1.406902    1.401440
   36          1             0       -4.389506    2.386381    1.879651
   37          1             0        2.178945   -2.720780    1.881685
   38          8             0        1.610472   -1.925312    2.363525
   39          1             0        2.085149   -1.289973    3.111273
   40          1             0        0.557787   -0.197004    1.832640
   41          8             0       -0.322210    0.284826    1.406560
   42          1             0       -0.213378    0.996572    0.588224
   43          1             0       -1.063370    2.326772    1.783594
   44          8             0       -0.619601    3.322274    1.795578
   45          1             0        0.415738    3.463021    1.485152
   46          1             0        4.695435   -1.100345    2.085324
   47          8             0        4.778978   -0.290960    1.360053
   48          1             0        5.758444    0.108700    1.097340
 ---------------------------------------------------------------------
 Rotational constants (GHZ):      0.2165689      0.1928719      0.1308459
 Standard basis: 3-21G (6D, 7F)
 There are   208 symmetry adapted basis functions of A   symmetry.
 Integral buffers will be    131072 words long.
 Raffenetti 1 integral format.
 Two-electron integral symmetry is turned on.
   208 basis functions,   336 primitive gaussians,   208 cartesian basis functions
    80 alpha electrons       80 beta electrons
       nuclear repulsion energy      1484.0783426730 Hartrees.
 NAtoms=   48 NActive=   48 NUniq=   48 SFac= 7.50D-01 NAtFMM=   80 NAOKFM=F Big=F
 One-electron integrals computed using PRISM.
 NBasis=   208 RedAO= T  NBF=   208
 NBsUse=   208 1.00D-06 NBFU=   208
 Harris functional with IExCor=  205 diagonalized for initial guess.
 ExpMin= 1.83D-01 ExpMax= 3.22D+02 ExpMxC= 3.22D+02 IAcc=1 IRadAn=         1 AccDes= 1.00D-06
 HarFok:  IExCor= 205 AccDes= 1.00D-06 IRadAn=         1 IDoV=1
 ScaDFX=  1.000000  1.000000  1.000000  1.000000
 Initial guess orbital symmetries:
       Occupied  (A) (A) (A) (A) (A) (A) (A) (A) (A) (A) (A) (A)
                 (A) (A) (A) (A) (A) (A) (A) (A) (A) (A) (A) (A)
                 (A) (A) (A) (A) (A) (A) (A) (A) (A) (A) (A) (A)
                 (A) (A) (A) (A) (A) (A) (A) (A) (A) (A) (A) (A)
                 (A) (A) (A) (A) (A) (A) (A) (A) (A) (A) (A) (A)
                 (A) (A) (A) (A) (A) (A) (A) (A) (A) (A) (A) (A)
                 (A) (A) (A) (A) (A) (A) (A) (A)
       Virtual   (A) (A) (A) (A) (A) (A) (A) (A) (A) (A) (A) (A)
                 (A) (A) (A) (A) (A) (A) (A) (A) (A) (A) (A) (A)
                 (A) (A) (A) (A) (A) (A) (A) (A) (A) (A) (A) (A)
                 (A) (A) (A) (A) (A) (A) (A) (A) (A) (A) (A) (A)
                 (A) (A) (A) (A) (A) (A) (A) (A) (A) (A) (A) (A)
                 (A) (A) (A) (A) (A) (A) (A) (A) (A) (A) (A) (A)
                 (A) (A) (A) (A) (A) (A) (A) (A) (A) (A) (A) (A)
                 (A) (A) (A) (A) (A) (A) (A) (A) (A) (A) (A) (A)
                 (A) (A) (A) (A) (A) (A) (A) (A) (A) (A) (A) (A)
                 (A) (A) (A) (A) (A) (A) (A) (A) (A) (A) (A) (A)
                 (A) (A) (A) (A) (A) (A) (A) (A)
 The electronic state of the initial guess is 1-A.
 Requested convergence on RMS density matrix=1.00D-08 within 128 cycles.
 Requested convergence on MAX density matrix=1.00D-06.
 Requested convergence on             energy=1.00D-06.
 No special actions if energy rises.
 Integral accuracy reduced to 1.0D-05 until final iterations.
 Initial convergence to 1.0D-05 achieved.  Increase integral accuracy.
 SCF Done:  E(RHF) =  -1208.22138280     A.U. after   19 cycles
             Convg  =    0.5507D-08             -V/T =  2.0043
             S**2   =   0.0000

 **********************************************************************

            Population analysis using the SCF density.

 **********************************************************************

 Orbital symmetries:
       Occupied  (A) (A) (A) (A) (A) (A) (A) (A) (A) (A) (A) (A)
                 (A) (A) (A) (A) (A) (A) (A) (A) (A) (A) (A) (A)
                 (A) (A) (A) (A) (A) (A) (A) (A) (A) (A) (A) (A)
                 (A) (A) (A) (A) (A) (A) (A) (A) (A) (A) (A) (A)
                 (A) (A) (A) (A) (A) (A) (A) (A) (A) (A) (A) (A)
                 (A) (A) (A) (A) (A) (A) (A) (A) (A) (A) (A) (A)
                 (A) (A) (A) (A) (A) (A) (A) (A)
       Virtual   (A) (A) (A) (A) (A) (A) (A) (A) (A) (A) (A) (A)
                 (A) (A) (A) (A) (A) (A) (A) (A) (A) (A) (A) (A)
                 (A) (A) (A) (A) (A) (A) (A) (A) (A) (A) (A) (A)
                 (A) (A) (A) (A) (A) (A) (A) (A) (A) (A) (A) (A)
                 (A) (A) (A) (A) (A) (A) (A) (A) (A) (A) (A) (A)
                 (A) (A) (A) (A) (A) (A) (A) (A) (A) (A) (A) (A)
                 (A) (A) (A) (A) (A) (A) (A) (A) (A) (A) (A) (A)
                 (A) (A) (A) (A) (A) (A) (A) (A) (A) (A) (A) (A)
                 (A) (A) (A) (A) (A) (A) (A) (A) (A) (A) (A) (A)
                 (A) (A) (A) (A) (A) (A) (A) (A) (A) (A) (A) (A)
                 (A) (A) (A) (A) (A) (A) (A) (A)
 The electronic state is 1-A.
 Alpha  occ. eigenvalues --  -20.53807 -20.52397 -20.51392 -20.50191 -20.50184
 Alpha  occ. eigenvalues --  -20.49278 -20.46869 -20.45409 -20.45146 -20.43802
 Alpha  occ. eigenvalues --  -20.41054 -20.39923 -20.39597 -20.37311 -20.37185
 Alpha  occ. eigenvalues --  -20.36845  -1.56572  -1.42215  -1.34188  -1.33564
 Alpha  occ. eigenvalues --   -1.31853  -1.31215  -1.27565  -1.27154  -1.25604
 Alpha  occ. eigenvalues --   -1.24018  -1.23514  -1.22410  -1.19630  -1.19156
 Alpha  occ. eigenvalues --   -1.19026  -1.18137  -0.85617  -0.76901  -0.72971
 Alpha  occ. eigenvalues --   -0.72201  -0.72031  -0.71029  -0.69349  -0.69106
 Alpha  occ. eigenvalues --   -0.66145  -0.65771  -0.65194  -0.63638  -0.62032
 Alpha  occ. eigenvalues --   -0.61509  -0.58370  -0.58200  -0.57790  -0.57696
 Alpha  occ. eigenvalues --   -0.57294  -0.56778  -0.55555  -0.55413  -0.54166
 Alpha  occ. eigenvalues --   -0.54063  -0.52811  -0.52372  -0.50913  -0.50844
 Alpha  occ. eigenvalues --   -0.49955  -0.49551  -0.48920  -0.48189  -0.47699
 Alpha  occ. eigenvalues --   -0.46725  -0.46300  -0.45743  -0.44480  -0.43894
 Alpha  occ. eigenvalues --   -0.43675  -0.43105  -0.42741  -0.41955  -0.40721
 Alpha  occ. eigenvalues --   -0.40618  -0.39750  -0.39090  -0.36643  -0.17203
 Alpha virt. eigenvalues --    0.08617   0.12083   0.12407   0.15093   0.15953
 Alpha virt. eigenvalues --    0.17881   0.19493   0.21014   0.22586   0.23407
 Alpha virt. eigenvalues --    0.24879   0.25825   0.26362   0.26717   0.28014
 Alpha virt. eigenvalues --    0.29585   0.29955   0.30959   0.31289   0.31693
 Alpha virt. eigenvalues --    0.32906   0.34173   0.36520   0.36922   0.37767
 Alpha virt. eigenvalues --    0.39763   0.41369   0.44015   0.45278   0.46413
 Alpha virt. eigenvalues --    0.49996   0.52157   0.98743   0.99964   1.01910
 Alpha virt. eigenvalues --    1.04442   1.05799   1.07981   1.08909   1.11277
 Alpha virt. eigenvalues --    1.12894   1.13334   1.13741   1.14895   1.15644
 Alpha virt. eigenvalues --    1.16053   1.17625   1.17845   1.19082   1.19245
 Alpha virt. eigenvalues --    1.21114   1.23184   1.23679   1.25205   1.26857
 Alpha virt. eigenvalues --    1.27423   1.28662   1.29862   1.30299   1.33294
 Alpha virt. eigenvalues --    1.35032   1.35817   1.38553   1.42333   1.70923
 Alpha virt. eigenvalues --    1.73576   1.73781   1.75066   1.75560   1.76310
 Alpha virt. eigenvalues --    1.78022   1.78472   1.79393   1.79759   1.80171
 Alpha virt. eigenvalues --    1.81627   1.82196   1.82501   1.83175   1.83617
 Alpha virt. eigenvalues --    1.85026   1.86473   1.87010   1.88632   1.89288
 Alpha virt. eigenvalues --    1.89667   1.90623   1.92237   1.93858   1.94711
 Alpha virt. eigenvalues --    1.95962   1.96383   1.97359   1.98296   2.00751
 Alpha virt. eigenvalues --    2.03640   2.05126   2.05517   2.05916   2.07216
 Alpha virt. eigenvalues --    2.10423   2.11018   2.14932   2.15786   2.16614
 Alpha virt. eigenvalues --    2.17055   2.19134   2.20656   2.23905   2.40363
 Alpha virt. eigenvalues --    2.41981   2.52872   2.91663   2.95065   2.96865
 Alpha virt. eigenvalues --    2.99525   3.00295   3.02721   3.05762   3.06620
 Alpha virt. eigenvalues --    3.06776   3.11609   3.13267   3.13724   3.17716
 Alpha virt. eigenvalues --    3.19201   3.32433   3.38720
          Condensed to atoms (all electrons):
              1          2          3          4          5          6
     1  H    0.383958   0.230711  -0.015136   0.000311   0.000268  -0.000023
     2  O    0.230711   8.270073   0.215437  -0.003757  -0.005033   0.000416
     3  H   -0.015136   0.215437   0.487452   0.008054  -0.004172  -0.000377
     4  H    0.000311  -0.003757   0.008054   0.657519   0.134840  -0.089448
     5  O    0.000268  -0.005033  -0.004172   0.134840   8.540380   0.265517
     6  H   -0.000023   0.000416  -0.000377  -0.089448   0.265517   0.674372
     7  H    0.000000   0.000000  -0.000005  -0.001334   0.000596   0.007742
     8  O    0.000000   0.000000   0.000000   0.000131  -0.000039   0.001081
     9  H    0.000000   0.000000   0.000000  -0.000012   0.000000  -0.000049
    10  H   -0.000207   0.000099  -0.000060   0.000006   0.000000   0.000000
    11  O    0.004609  -0.000657   0.002396   0.000014  -0.000002   0.000000
    12  H   -0.000164   0.000131  -0.000142   0.000060  -0.000008   0.000000
    13  H    0.000009  -0.000011   0.000045  -0.000168   0.000095   0.000029
    14  O    0.000000   0.000000  -0.000039   0.001053  -0.000037  -0.000029
    15  H    0.000000   0.000000   0.000002  -0.000101   0.000018   0.000035
    16  H    0.000000   0.000000   0.000000  -0.000020  -0.000001   0.000051
    17  O    0.000000   0.000000   0.000000   0.000002   0.000000  -0.000057
    18  H    0.000000   0.000000   0.000000   0.000000   0.000000   0.000002
    19  H    0.000000   0.000000   0.000000   0.000000   0.000000   0.000000
    20  O    0.000000   0.000000   0.000000   0.000000   0.000000   0.000000
    21  H    0.000000   0.000000   0.000000   0.000000   0.000000   0.000000
    22  H    0.000000   0.000000   0.000000   0.000000   0.000000   0.000000
    23  O    0.000000   0.000000   0.000000   0.000000   0.000000   0.000000
    24  H    0.000000   0.000000   0.000000   0.000000   0.000000   0.000000
    25  H    0.000000   0.000000   0.000000   0.000000   0.000000   0.000000
    26  O    0.000000   0.000000   0.000000   0.000000   0.000000   0.000000
    27  H    0.000000   0.000000   0.000000   0.000000   0.000000   0.000000
    28  H   -0.000678   0.002077  -0.000153   0.000021   0.000001   0.000001
    29  O    0.016248  -0.041903   0.002115   0.000636  -0.001323  -0.000048
    30  H   -0.011310   0.019825  -0.003161  -0.013745   0.031177   0.002656
    31  H   -0.000033  -0.000073  -0.000056  -0.011574   0.048976   0.047042
    32  O    0.000002  -0.000021   0.000340   0.065148  -0.480579  -0.455598
    33  H   -0.000001   0.000023  -0.000099  -0.036808   0.017262   0.254477
    34  H    0.000000   0.000000   0.000000  -0.000146  -0.000024   0.006867
    35  O    0.000000   0.000000   0.000000   0.000004   0.000002  -0.001929
    36  H    0.000000   0.000000   0.000000   0.000000   0.000000   0.000077
    37  H    0.000001   0.000000   0.000000  -0.000001   0.000000   0.000000
    38  O    0.000000   0.000000   0.000000   0.000000   0.000000   0.000000
    39  H    0.000000   0.000000   0.000000   0.000000   0.000000   0.000000
    40  H    0.000000   0.000000  -0.000001  -0.000049   0.000037   0.000093
    41  O    0.000000   0.000000   0.000000   0.000147  -0.000098  -0.001327
    42  H    0.000000   0.000000   0.000000  -0.000285   0.000126   0.000565
    43  H    0.000000   0.000000   0.000000  -0.000001   0.000000   0.000013
    44  O    0.000000   0.000000   0.000000   0.000000   0.000000   0.000000
    45  H    0.000000   0.000000   0.000000   0.000000   0.000000   0.000000
    46  H    0.000000   0.000000   0.000000   0.000000   0.000000   0.000000
    47  O    0.000000   0.000000   0.000000   0.000000   0.000000   0.000000
    48  H    0.000000   0.000000   0.000000   0.000000   0.000000   0.000000
              7          8          9         10         11         12
     1  H    0.000000   0.000000   0.000000  -0.000207   0.004609  -0.000164
     2  O    0.000000   0.000000   0.000000   0.000099  -0.000657   0.000131
     3  H   -0.000005   0.000000   0.000000  -0.000060   0.002396  -0.000142
     4  H   -0.001334   0.000131  -0.000012   0.000006   0.000014   0.000060
     5  O    0.000596  -0.000039   0.000000   0.000000  -0.000002  -0.000008
     6  H    0.007742   0.001081  -0.000049   0.000000   0.000000   0.000000
     7  H    0.426186   0.229360  -0.020733   0.000000   0.000000   0.000000
     8  O    0.229360   8.232171   0.237638   0.000000   0.000000   0.000000
     9  H   -0.020733   0.237638   0.455872   0.000000   0.000000   0.000000
    10  H    0.000000   0.000000   0.000000   0.403443   0.242649  -0.023113
    11  O    0.000000   0.000000   0.000000   0.242649   8.225618   0.226571
    12  H    0.000000   0.000000   0.000000  -0.023113   0.226571   0.466085
    13  H    0.000003   0.000000   0.000000   0.000483  -0.000305   0.006803
    14  O    0.000001   0.000000   0.000000   0.000112  -0.002341  -0.000532
    15  H    0.000000   0.000000   0.000000   0.000035  -0.000021   0.001098
    16  H   -0.000482   0.000070  -0.000013   0.000000   0.000000  -0.000011
    17  O    0.008631  -0.000759   0.000814   0.000000   0.000000   0.000000
    18  H   -0.000296   0.000134   0.000044   0.000000   0.000000   0.000000
    19  H    0.000000   0.000000   0.000000  -0.000291   0.000134  -0.000080
    20  O    0.000000   0.000000   0.000000   0.007379  -0.001641   0.004533
    21  H    0.000000   0.000000   0.000000  -0.000333   0.000435   0.000105
    22  H    0.000000   0.000000   0.000000   0.000001  -0.000007   0.000077
    23  O    0.000000   0.000000   0.000000   0.000000   0.000000  -0.000018
    24  H    0.000000   0.000000   0.000000   0.000000   0.000000   0.000001
    25  H    0.000000   0.000000   0.000000   0.000000   0.000000   0.000000
    26  O    0.000000   0.000000   0.000000   0.000000   0.000000   0.000000
    27  H    0.000000   0.000000   0.000000   0.000000   0.000000   0.000000
    28  H    0.000000   0.000000   0.000000  -0.000001   0.000000   0.000000
    29  O    0.000000   0.000000   0.000000   0.000049  -0.000024   0.000001
    30  H    0.000002   0.000000   0.000000  -0.000006   0.000234  -0.000013
    31  H    0.000069  -0.000002   0.000000   0.000000   0.000000  -0.000001
    32  O   -0.001111   0.000011  -0.000001   0.000000   0.000000   0.000000
    33  H    0.006033  -0.001454   0.000108   0.000000   0.000000  -0.000001
    34  H   -0.000072   0.000138  -0.000002   0.000000   0.000000   0.000000
    35  O    0.000927   0.000113   0.000062   0.000000   0.000000   0.000000
    36  H    0.000000   0.000069  -0.000005   0.000000   0.000000   0.000000
    37  H    0.000000   0.000000   0.000000   0.000275   0.000120  -0.000006
    38  O    0.000000   0.000000   0.000000   0.000056  -0.000004   0.000002
    39  H    0.000000   0.000000   0.000000  -0.000002   0.000000   0.000000
    40  H    0.000000   0.000000   0.000000  -0.000005   0.000012  -0.000047
    41  O   -0.000005   0.000000   0.000000   0.000002  -0.000004   0.000022
    42  H    0.000049  -0.000001   0.000000  -0.000001   0.000003  -0.000027
    43  H    0.000004   0.000000   0.000000   0.000000   0.000000   0.000000
    44  O    0.000000   0.000000   0.000000   0.000000   0.000000   0.000000
    45  H    0.000000   0.000000   0.000000   0.000000   0.000000   0.000000
    46  H    0.000000   0.000000   0.000000   0.000002   0.000000   0.000000
    47  O    0.000000   0.000000   0.000000   0.000000   0.000000   0.000001
    48  H    0.000000   0.000000   0.000000   0.000000   0.000000   0.000000
             13         14         15         16         17         18
     1  H    0.000009   0.000000   0.000000   0.000000   0.000000   0.000000
     2  O   -0.000011   0.000000   0.000000   0.000000   0.000000   0.000000
     3  H    0.000045  -0.000039   0.000002   0.000000   0.000000   0.000000
     4  H   -0.000168   0.001053  -0.000101  -0.000020   0.000002   0.000000
     5  O    0.000095  -0.000037   0.000018  -0.000001   0.000000   0.000000
     6  H    0.000029  -0.000029   0.000035   0.000051  -0.000057   0.000002
     7  H    0.000003   0.000001   0.000000  -0.000482   0.008631  -0.000296
     8  O    0.000000   0.000000   0.000000   0.000070  -0.000759   0.000134
     9  H    0.000000   0.000000   0.000000  -0.000013   0.000814   0.000044
    10  H    0.000483   0.000112   0.000035   0.000000   0.000000   0.000000
    11  O   -0.000305  -0.002341  -0.000021   0.000000   0.000000   0.000000
    12  H    0.006803  -0.000532   0.001098  -0.000011   0.000000   0.000000
    13  H    0.540388   0.174267  -0.009263   0.000269  -0.000003   0.000000
    14  O    0.174267   8.571160   0.196148   0.003931  -0.000089   0.000000
    15  H   -0.009263   0.196148   0.451617  -0.000190   0.000004   0.000000
    16  H    0.000269   0.003931  -0.000190   0.443253   0.234989  -0.021378
    17  O   -0.000003  -0.000089   0.000004   0.234989   8.210993   0.241539
    18  H    0.000000   0.000000   0.000000  -0.021378   0.241539   0.416769
    19  H    0.000011   0.000000   0.000001   0.000000   0.000000   0.000000
    20  O   -0.000220   0.000000   0.000002   0.000000   0.000000   0.000000
    21  H    0.000034  -0.000004  -0.000007   0.000000   0.000000   0.000000
    22  H    0.000476   0.000435   0.000392   0.000001   0.000000   0.000000
    23  O    0.000151  -0.000061   0.000699   0.000022   0.000000   0.000000
    24  H   -0.000005   0.000002  -0.000020  -0.000002   0.000000   0.000000
    25  H    0.000007   0.000000   0.000009   0.000377   0.000057   0.000039
    26  O    0.000000   0.000000   0.000000   0.000008  -0.000001   0.000000
    27  H    0.000000   0.000000   0.000000  -0.000001   0.000000   0.000000
    28  H    0.000000   0.000000   0.000000   0.000000   0.000000   0.000000
    29  O    0.000000   0.000000   0.000000   0.000000   0.000000   0.000000
    30  H    0.000016   0.000020   0.000011   0.000000   0.000000   0.000000
    31  H   -0.000008  -0.000029   0.000033   0.000001   0.000000   0.000000
    32  O   -0.000004  -0.000014  -0.000015  -0.000002   0.000000   0.000000
    33  H   -0.000015   0.000162   0.000016   0.000061   0.000015   0.000001
    34  H    0.000000  -0.000003   0.000004   0.000005   0.000000   0.000000
    35  O    0.000000   0.000000   0.000000   0.000000  -0.000001   0.000000
    36  H    0.000000   0.000000   0.000000   0.000001   0.000004   0.000000
    37  H    0.000004  -0.000009   0.000123   0.000000   0.000000   0.000000
    38  O    0.000009  -0.000033   0.000732   0.000000   0.000000   0.000000
    39  H    0.000000  -0.000009   0.000273   0.000000   0.000000   0.000000
    40  H   -0.001123  -0.004975  -0.003035   0.000025   0.000000   0.000000
    41  O    0.016195  -0.298192   0.014662  -0.000324  -0.000001   0.000000
    42  H    0.003431   0.017654  -0.025807   0.001495   0.000305  -0.000020
    43  H   -0.000060  -0.000425   0.000050  -0.000283   0.000276  -0.000002
    44  O    0.000000  -0.000023  -0.000053   0.000868  -0.000062   0.000009
    45  H   -0.000002  -0.000066   0.000085   0.000068   0.000020   0.000003
    46  H    0.000000   0.000000   0.000002   0.000000   0.000000   0.000000
    47  O   -0.000001   0.000000   0.000046   0.000000   0.000000   0.000000
    48  H    0.000000   0.000000  -0.000002   0.000000   0.000000   0.000000
             19         20         21         22         23         24
     1  H    0.000000   0.000000   0.000000   0.000000   0.000000   0.000000
     2  O    0.000000   0.000000   0.000000   0.000000   0.000000   0.000000
     3  H    0.000000   0.000000   0.000000   0.000000   0.000000   0.000000
     4  H    0.000000   0.000000   0.000000   0.000000   0.000000   0.000000
     5  O    0.000000   0.000000   0.000000   0.000000   0.000000   0.000000
     6  H    0.000000   0.000000   0.000000   0.000000   0.000000   0.000000
     7  H    0.000000   0.000000   0.000000   0.000000   0.000000   0.000000
     8  O    0.000000   0.000000   0.000000   0.000000   0.000000   0.000000
     9  H    0.000000   0.000000   0.000000   0.000000   0.000000   0.000000
    10  H   -0.000291   0.007379  -0.000333   0.000001   0.000000   0.000000
    11  O    0.000134  -0.001641   0.000435  -0.000007   0.000000   0.000000
    12  H   -0.000080   0.004533   0.000105   0.000077  -0.000018   0.000001
    13  H    0.000011  -0.000220   0.000034   0.000476   0.000151  -0.000005
    14  O    0.000000   0.000000  -0.000004   0.000435  -0.000061   0.000002
    15  H    0.000001   0.000002  -0.000007   0.000392   0.000699  -0.000020
    16  H    0.000000   0.000000   0.000000   0.000001   0.000022  -0.000002
    17  O    0.000000   0.000000   0.000000   0.000000   0.000000   0.000000
    18  H    0.000000   0.000000   0.000000   0.000000   0.000000   0.000000
    19  H    0.410352   0.234039  -0.022033   0.000586  -0.000010   0.000000
    20  O    0.234039   8.227454   0.238982   0.002867  -0.000036  -0.000001
    21  H   -0.022033   0.238982   0.430574   0.003710   0.000048   0.000006
    22  H    0.000586   0.002867   0.003710   0.414110   0.235135  -0.017341
    23  O   -0.000010  -0.000036   0.000048   0.235135   8.240462   0.231189
    24  H    0.000000  -0.000001   0.000006  -0.017341   0.231189   0.415052
    25  H    0.000000   0.000000   0.000000  -0.000355   0.023374  -0.005629
    26  O    0.000000   0.000000   0.000000   0.000265  -0.006692   0.008218
    27  H    0.000000   0.000000   0.000000   0.000001  -0.000107   0.005550
    28  H    0.000000   0.000000   0.000000   0.000000   0.000000   0.000000
    29  O    0.000000   0.000000   0.000000   0.000000   0.000000   0.000000
    30  H    0.000000   0.000000   0.000000   0.000000   0.000000   0.000000
    31  H    0.000000   0.000000   0.000000   0.000000   0.000000   0.000000
    32  O    0.000000   0.000000   0.000000   0.000000   0.000000   0.000000
    33  H    0.000000   0.000000   0.000000   0.000000   0.000000   0.000000
    34  H    0.000000   0.000000   0.000000   0.000000   0.000000   0.000000
    35  O    0.000000   0.000000   0.000000   0.000000   0.000000   0.000000
    36  H    0.000000   0.000000   0.000000   0.000000   0.000000   0.000000
    37  H    0.000005  -0.000001   0.000000   0.000000   0.000000   0.000000
    38  O    0.000000   0.000000   0.000000   0.000000   0.000000   0.000000
    39  H    0.000000   0.000000   0.000000   0.000000   0.000000   0.000000
    40  H    0.000000   0.000000   0.000000  -0.000015  -0.000005   0.000000
    41  O    0.000000   0.000000   0.000000   0.000001   0.000000   0.000000
    42  H    0.000000   0.000000   0.000000  -0.000001   0.000004   0.000000
    43  H    0.000000   0.000000   0.000000   0.000000   0.000000   0.000000
    44  O    0.000000   0.000000   0.000000   0.000000   0.000000   0.000000
    45  H    0.000000   0.000000   0.000000  -0.000002   0.000098  -0.000014
    46  H   -0.000516   0.000048   0.000001  -0.000018   0.000000   0.000000
    47  O    0.016241  -0.000815  -0.000026   0.000594  -0.000004  -0.000001
    48  H   -0.000836   0.000107   0.000035  -0.000037   0.000004   0.000003
             25         26         27         28         29         30
     1  H    0.000000   0.000000   0.000000  -0.000678   0.016248  -0.011310
     2  O    0.000000   0.000000   0.000000   0.002077  -0.041903   0.019825
     3  H    0.000000   0.000000   0.000000  -0.000153   0.002115  -0.003161
     4  H    0.000000   0.000000   0.000000   0.000021   0.000636  -0.013745
     5  O    0.000000   0.000000   0.000000   0.000001  -0.001323   0.031177
     6  H    0.000000   0.000000   0.000000   0.000001  -0.000048   0.002656
     7  H    0.000000   0.000000   0.000000   0.000000   0.000000   0.000002
     8  O    0.000000   0.000000   0.000000   0.000000   0.000000   0.000000
     9  H    0.000000   0.000000   0.000000   0.000000   0.000000   0.000000
    10  H    0.000000   0.000000   0.000000  -0.000001   0.000049  -0.000006
    11  O    0.000000   0.000000   0.000000   0.000000  -0.000024   0.000234
    12  H    0.000000   0.000000   0.000000   0.000000   0.000001  -0.000013
    13  H    0.000007   0.000000   0.000000   0.000000   0.000000   0.000016
    14  O    0.000000   0.000000   0.000000   0.000000   0.000000   0.000020
    15  H    0.000009   0.000000   0.000000   0.000000   0.000000   0.000011
    16  H    0.000377   0.000008  -0.000001   0.000000   0.000000   0.000000
    17  O    0.000057  -0.000001   0.000000   0.000000   0.000000   0.000000
    18  H    0.000039   0.000000   0.000000   0.000000   0.000000   0.000000
    19  H    0.000000   0.000000   0.000000   0.000000   0.000000   0.000000
    20  O    0.000000   0.000000   0.000000   0.000000   0.000000   0.000000
    21  H    0.000000   0.000000   0.000000   0.000000   0.000000   0.000000
    22  H   -0.000355   0.000265   0.000001   0.000000   0.000000   0.000000
    23  O    0.023374  -0.006692  -0.000107   0.000000   0.000000   0.000000
    24  H   -0.005629   0.008218   0.005550   0.000000   0.000000   0.000000
    25  H    0.369624   0.237710  -0.025278   0.000000   0.000000   0.000000
    26  O    0.237710   8.240559   0.241387   0.000000   0.000000   0.000000
    27  H   -0.025278   0.241387   0.448000   0.000000   0.000000   0.000000
    28  H    0.000000   0.000000   0.000000   0.512833   0.225852  -0.016720
    29  O    0.000000   0.000000   0.000000   0.225852   8.350063   0.204390
    30  H    0.000000   0.000000   0.000000  -0.016720   0.204390   0.364417
    31  H    0.000000   0.000000   0.000000   0.000487  -0.000764   0.015634
    32  O    0.000000   0.000000   0.000000  -0.000015   0.000066  -0.012699
    33  H    0.000000   0.000000   0.000000  -0.000003  -0.000062   0.002517
    34  H    0.000000   0.000000   0.000000   0.000000   0.000000   0.000006
    35  O    0.000000   0.000000   0.000000   0.000000   0.000000   0.000000
    36  H    0.000000   0.000000   0.000000   0.000000   0.000000   0.000000
    37  H    0.000000   0.000000   0.000000   0.000146   0.000415   0.000028
    38  O    0.000000   0.000000   0.000000   0.000615  -0.000030   0.000017
    39  H    0.000000   0.000000   0.000000  -0.000014   0.000001   0.000000
    40  H    0.000000   0.000000   0.000000   0.000004  -0.000003   0.000058
    41  O    0.000000   0.000000   0.000000   0.000000   0.000000  -0.000050
    42  H    0.000013  -0.000003   0.000000   0.000000   0.000000   0.000012
    43  H    0.000002  -0.000002   0.000000   0.000000   0.000000   0.000000
    44  O    0.000067  -0.000149   0.000008   0.000000   0.000000   0.000000
    45  H   -0.000233   0.006965  -0.000225   0.000000   0.000000   0.000000
    46  H    0.000000   0.000000   0.000000   0.000000   0.000000   0.000000
    47  O    0.000000   0.000000   0.000000   0.000000   0.000000   0.000000
    48  H    0.000000   0.000000   0.000000   0.000000   0.000000   0.000000
             31         32         33         34         35         36
     1  H   -0.000033   0.000002  -0.000001   0.000000   0.000000   0.000000
     2  O   -0.000073  -0.000021   0.000023   0.000000   0.000000   0.000000
     3  H   -0.000056   0.000340  -0.000099   0.000000   0.000000   0.000000
     4  H   -0.011574   0.065148  -0.036808  -0.000146   0.000004   0.000000
     5  O    0.048976  -0.480579   0.017262  -0.000024   0.000002   0.000000
     6  H    0.047042  -0.455598   0.254477   0.006867  -0.001929   0.000077
     7  H    0.000069  -0.001111   0.006033  -0.000072   0.000927   0.000000
     8  O   -0.000002   0.000011  -0.001454   0.000138   0.000113   0.000069
     9  H    0.000000  -0.000001   0.000108  -0.000002   0.000062  -0.000005
    10  H    0.000000   0.000000   0.000000   0.000000   0.000000   0.000000
    11  O    0.000000   0.000000   0.000000   0.000000   0.000000   0.000000
    12  H   -0.000001   0.000000  -0.000001   0.000000   0.000000   0.000000
    13  H   -0.000008  -0.000004  -0.000015   0.000000   0.000000   0.000000
    14  O   -0.000029  -0.000014   0.000162  -0.000003   0.000000   0.000000
    15  H    0.000033  -0.000015   0.000016   0.000004   0.000000   0.000000
    16  H    0.000001  -0.000002   0.000061   0.000005   0.000000   0.000001
    17  O    0.000000   0.000000   0.000015   0.000000  -0.000001   0.000004
    18  H    0.000000   0.000000   0.000001   0.000000   0.000000   0.000000
    19  H    0.000000   0.000000   0.000000   0.000000   0.000000   0.000000
    20  O    0.000000   0.000000   0.000000   0.000000   0.000000   0.000000
    21  H    0.000000   0.000000   0.000000   0.000000   0.000000   0.000000
    22  H    0.000000   0.000000   0.000000   0.000000   0.000000   0.000000
    23  O    0.000000   0.000000   0.000000   0.000000   0.000000   0.000000
    24  H    0.000000   0.000000   0.000000   0.000000   0.000000   0.000000
    25  H    0.000000   0.000000   0.000000   0.000000   0.000000   0.000000
    26  O    0.000000   0.000000   0.000000   0.000000   0.000000   0.000000
    27  H    0.000000   0.000000   0.000000   0.000000   0.000000   0.000000
    28  H    0.000487  -0.000015  -0.000003   0.000000   0.000000   0.000000
    29  O   -0.000764   0.000066  -0.000062   0.000000   0.000000   0.000000
    30  H    0.015634  -0.012699   0.002517   0.000006   0.000000   0.000000
    31  H    0.534741   0.000655   0.071821   0.002445  -0.000127   0.000010
    32  O    0.000655   9.473338  -0.272353  -0.003344  -0.000072  -0.000004
    33  H    0.071821  -0.272353   0.825094   0.028152  -0.004915   0.000358
    34  H    0.002445  -0.003344   0.028152   0.442442   0.216531  -0.019374
    35  O   -0.000127  -0.000072  -0.004915   0.216531   8.258318   0.235583
    36  H    0.000010  -0.000004   0.000358  -0.019374   0.235583   0.456291
    37  H    0.000010   0.000000   0.000000   0.000000   0.000000   0.000000
    38  O    0.000045   0.000000   0.000000   0.000000   0.000000   0.000000
    39  H    0.000005   0.000000   0.000000   0.000000   0.000000   0.000000
    40  H    0.000789  -0.000088   0.000179   0.000014   0.000000   0.000000
    41  O    0.002900  -0.000342   0.004833  -0.000165  -0.000001  -0.000001
    42  H    0.000243  -0.000232   0.000923   0.000114  -0.000014   0.000001
    43  H    0.000022  -0.000011   0.000218   0.000549   0.000224   0.000195
    44  O    0.000000   0.000000  -0.000006  -0.000015  -0.000001   0.000005
    45  H    0.000000   0.000000   0.000000   0.000000   0.000000  -0.000001
    46  H    0.000000   0.000000   0.000000   0.000000   0.000000   0.000000
    47  O    0.000000   0.000000   0.000000   0.000000   0.000000   0.000000
    48  H    0.000000   0.000000   0.000000   0.000000   0.000000   0.000000
             37         38         39         40         41         42
     1  H    0.000001   0.000000   0.000000   0.000000   0.000000   0.000000
     2  O    0.000000   0.000000   0.000000   0.000000   0.000000   0.000000
     3  H    0.000000   0.000000   0.000000  -0.000001   0.000000   0.000000
     4  H   -0.000001   0.000000   0.000000  -0.000049   0.000147  -0.000285
     5  O    0.000000   0.000000   0.000000   0.000037  -0.000098   0.000126
     6  H    0.000000   0.000000   0.000000   0.000093  -0.001327   0.000565
     7  H    0.000000   0.000000   0.000000   0.000000  -0.000005   0.000049
     8  O    0.000000   0.000000   0.000000   0.000000   0.000000  -0.000001
     9  H    0.000000   0.000000   0.000000   0.000000   0.000000   0.000000
    10  H    0.000275   0.000056  -0.000002  -0.000005   0.000002  -0.000001
    11  O    0.000120  -0.000004   0.000000   0.000012  -0.000004   0.000003
    12  H   -0.000006   0.000002   0.000000  -0.000047   0.000022  -0.000027
    13  H    0.000004   0.000009   0.000000  -0.001123   0.016195   0.003431
    14  O   -0.000009  -0.000033  -0.000009  -0.004975  -0.298192   0.017654
    15  H    0.000123   0.000732   0.000273  -0.003035   0.014662  -0.025807
    16  H    0.000000   0.000000   0.000000   0.000025  -0.000324   0.001495
    17  O    0.000000   0.000000   0.000000   0.000000  -0.000001   0.000305
    18  H    0.000000   0.000000   0.000000   0.000000   0.000000  -0.000020
    19  H    0.000005   0.000000   0.000000   0.000000   0.000000   0.000000
    20  O   -0.000001   0.000000   0.000000   0.000000   0.000000   0.000000
    21  H    0.000000   0.000000   0.000000   0.000000   0.000000   0.000000
    22  H    0.000000   0.000000   0.000000  -0.000015   0.000001  -0.000001
    23  O    0.000000   0.000000   0.000000  -0.000005   0.000000   0.000004
    24  H    0.000000   0.000000   0.000000   0.000000   0.000000   0.000000
    25  H    0.000000   0.000000   0.000000   0.000000   0.000000   0.000013
    26  O    0.000000   0.000000   0.000000   0.000000   0.000000  -0.000003
    27  H    0.000000   0.000000   0.000000   0.000000   0.000000   0.000000
    28  H    0.000146   0.000615  -0.000014   0.000004   0.000000   0.000000
    29  O    0.000415  -0.000030   0.000001  -0.000003   0.000000   0.000000
    30  H    0.000028   0.000017   0.000000   0.000058  -0.000050   0.000012
    31  H    0.000010   0.000045   0.000005   0.000789   0.002900   0.000243
    32  O    0.000000   0.000000   0.000000  -0.000088  -0.000342  -0.000232
    33  H    0.000000   0.000000   0.000000   0.000179   0.004833   0.000923
    34  H    0.000000   0.000000   0.000000   0.000014  -0.000165   0.000114
    35  O    0.000000   0.000000   0.000000   0.000000  -0.000001  -0.000014
    36  H    0.000000   0.000000   0.000000   0.000000  -0.000001   0.000001
    37  H    0.395575   0.240822  -0.019747  -0.001005   0.000082  -0.000003
    38  O    0.240822   8.194761   0.235479   0.027607  -0.002078   0.000008
    39  H   -0.019747   0.235479   0.429992  -0.004454   0.000246   0.000006
    40  H   -0.001005   0.027607  -0.004454   0.433891   0.228856  -0.019916
    41  O    0.000082  -0.002078   0.000246   0.228856   8.608718   0.203160
    42  H   -0.000003   0.000008   0.000006  -0.019916   0.203160   0.344126
    43  H    0.000000   0.000000   0.000000  -0.000263   0.016462   0.006649
    44  O    0.000000   0.000000   0.000000   0.000102  -0.002307   0.005428
    45  H    0.000000   0.000000   0.000000   0.000025   0.000176   0.002602
    46  H    0.000435   0.000722   0.000651  -0.000005   0.000000   0.000000
    47  O    0.000026  -0.000028   0.000139  -0.000004   0.000000   0.000000
    48  H   -0.000002   0.000000  -0.000007   0.000000   0.000000   0.000000
             43         44         45         46         47         48
     1  H    0.000000   0.000000   0.000000   0.000000   0.000000   0.000000
     2  O    0.000000   0.000000   0.000000   0.000000   0.000000   0.000000
     3  H    0.000000   0.000000   0.000000   0.000000   0.000000   0.000000
     4  H   -0.000001   0.000000   0.000000   0.000000   0.000000   0.000000
     5  O    0.000000   0.000000   0.000000   0.000000   0.000000   0.000000
     6  H    0.000013   0.000000   0.000000   0.000000   0.000000   0.000000
     7  H    0.000004   0.000000   0.000000   0.000000   0.000000   0.000000
     8  O    0.000000   0.000000   0.000000   0.000000   0.000000   0.000000
     9  H    0.000000   0.000000   0.000000   0.000000   0.000000   0.000000
    10  H    0.000000   0.000000   0.000000   0.000002   0.000000   0.000000
    11  O    0.000000   0.000000   0.000000   0.000000   0.000000   0.000000
    12  H    0.000000   0.000000   0.000000   0.000000   0.000001   0.000000
    13  H   -0.000060   0.000000  -0.000002   0.000000  -0.000001   0.000000
    14  O   -0.000425  -0.000023  -0.000066   0.000000   0.000000   0.000000
    15  H    0.000050  -0.000053   0.000085   0.000002   0.000046  -0.000002
    16  H   -0.000283   0.000868   0.000068   0.000000   0.000000   0.000000
    17  O    0.000276  -0.000062   0.000020   0.000000   0.000000   0.000000
    18  H   -0.000002   0.000009   0.000003   0.000000   0.000000   0.000000
    19  H    0.000000   0.000000   0.000000  -0.000516   0.016241  -0.000836
    20  O    0.000000   0.000000   0.000000   0.000048  -0.000815   0.000107
    21  H    0.000000   0.000000   0.000000   0.000001  -0.000026   0.000035
    22  H    0.000000   0.000000  -0.000002  -0.000018   0.000594  -0.000037
    23  O    0.000000   0.000000   0.000098   0.000000  -0.000004   0.000004
    24  H    0.000000   0.000000  -0.000014   0.000000  -0.000001   0.000003
    25  H    0.000002   0.000067  -0.000233   0.000000   0.000000   0.000000
    26  O   -0.000002  -0.000149   0.006965   0.000000   0.000000   0.000000
    27  H    0.000000   0.000008  -0.000225   0.000000   0.000000   0.000000
    28  H    0.000000   0.000000   0.000000   0.000000   0.000000   0.000000
    29  O    0.000000   0.000000   0.000000   0.000000   0.000000   0.000000
    30  H    0.000000   0.000000   0.000000   0.000000   0.000000   0.000000
    31  H    0.000022   0.000000   0.000000   0.000000   0.000000   0.000000
    32  O   -0.000011   0.000000   0.000000   0.000000   0.000000   0.000000
    33  H    0.000218  -0.000006   0.000000   0.000000   0.000000   0.000000
    34  H    0.000549  -0.000015   0.000000   0.000000   0.000000   0.000000
    35  O    0.000224  -0.000001   0.000000   0.000000   0.000000   0.000000
    36  H    0.000195   0.000005  -0.000001   0.000000   0.000000   0.000000
    37  H    0.000000   0.000000   0.000000   0.000435   0.000026  -0.000002
    38  O    0.000000   0.000000   0.000000   0.000722  -0.000028   0.000000
    39  H    0.000000   0.000000   0.000000   0.000651   0.000139  -0.000007
    40  H   -0.000263   0.000102   0.000025  -0.000005  -0.000004   0.000000
    41  O    0.016462  -0.002307   0.000176   0.000000   0.000000   0.000000
    42  H    0.006649   0.005428   0.002602   0.000000   0.000000   0.000000
    43  H    0.388110   0.236060  -0.024746   0.000000   0.000000   0.000000
    44  O    0.236060   8.259183   0.238088   0.000000   0.000000   0.000000
    45  H   -0.024746   0.238088   0.442532   0.000000   0.000000   0.000000
    46  H    0.000000   0.000000   0.000000   0.404728   0.242778  -0.021210
    47  O    0.000000   0.000000   0.000000   0.242778   8.220325   0.241506
    48  H    0.000000   0.000000   0.000000  -0.021210   0.241506   0.409264
 Mulliken atomic charges:
              1
     1  H    0.391435
     2  O   -0.687337
     3  H    0.307561
     4  H    0.289502
     5  O   -0.547980
     6  H    0.287854
     7  H    0.344435
     8  O   -0.698660
     9  H    0.326278
    10  H    0.369430
    11  O   -0.697789
    12  H    0.318675
    13  H    0.268464
    14  O   -0.658035
    15  H    0.372419
    16  H    0.337213
    17  O   -0.696675
    18  H    0.363156
    19  H    0.362399
    20  O   -0.712697
    21  H    0.348474
    22  H    0.359124
    23  O   -0.724253
    24  H    0.362991
    25  H    0.400217
    26  O   -0.728265
    27  H    0.330664
    28  H    0.275548
    29  O   -0.755681
    30  H    0.416683
    31  H    0.286740
    32  O   -0.313058
    33  H    0.103464
    34  H    0.325879
    35  O   -0.704704
    36  H    0.326792
    37  H    0.382708
    38  O   -0.698701
    39  H    0.357442
    40  H    0.343298
    41  O   -0.791566
    42  H    0.459393
    43  H    0.376959
    44  O   -0.737202
    45  H    0.334625
    46  H    0.372382
    47  O   -0.720778
    48  H    0.371175
 Sum of Mulliken charges=   0.00000
 Atomic charges with hydrogens summed into heavy atoms:
              1
     1  H    0.000000
     2  O    0.011660
     3  H    0.000000
     4  H    0.000000
     5  O    0.029376
     6  H    0.000000
     7  H    0.000000
     8  O   -0.027947
     9  H    0.000000
    10  H    0.000000
    11  O   -0.009685
    12  H    0.000000
    13  H    0.000000
    14  O   -0.017152
    15  H    0.000000
    16  H    0.000000
    17  O    0.003693
    18  H    0.000000
    19  H    0.000000
    20  O   -0.001824
    21  H    0.000000
    22  H    0.000000
    23  O   -0.002138
    24  H    0.000000
    25  H    0.000000
    26  O    0.002616
    27  H    0.000000
    28  H    0.000000
    29  O   -0.063450
    30  H    0.000000
    31  H    0.000000
    32  O    0.077147
    33  H    0.000000
    34  H    0.000000
    35  O   -0.052033
    36  H    0.000000
    37  H    0.000000
    38  O    0.041449
    39  H    0.000000
    40  H    0.000000
    41  O    0.011125
    42  H    0.000000
    43  H    0.000000
    44  O   -0.025618
    45  H    0.000000
    46  H    0.000000
    47  O    0.022779
    48  H    0.000000
 Sum of Mulliken charges=   0.00000
 Electronic spatial extent (au):  <R**2>=  8995.6017
 Charge=     0.0000 electrons
 Dipole moment (field-independent basis, Debye):
    X=    23.2948    Y=     3.4418    Z=     1.5330  Tot=    23.5976
 Quadrupole moment (field-independent basis, Debye-Ang):
   XX=   -79.5697   YY=  -132.2235   ZZ=   -86.6695
   XY=    -2.4201   XZ=    18.1068   YZ=   -27.0201
 Traceless Quadrupole moment (field-independent basis, Debye-Ang):
   XX=    19.9179   YY=   -32.7359   ZZ=    12.8180
   XY=    -2.4201   XZ=    18.1068   YZ=   -27.0201
 Octapole moment (field-independent basis, Debye-Ang**2):
  XXX=   554.2172  YYY=    49.9584  ZZZ=    13.8374  XYY=   115.7600
  XXY=    64.2396  XXZ=    72.2736  XZZ=    17.0158  YZZ=     0.9079
  YYZ=    -4.4074  XYZ=   -11.9772
 Hexadecapole moment (field-independent basis, Debye-Ang**3):
 XXXX= -3742.3626 YYYY= -4691.9312 ZZZZ= -1122.7735 XXXY=   123.6942
 XXXZ=   363.8666 YYYX=  -197.5143 YYYZ=  -276.4936 ZZZX=   178.3794
 ZZZY=  -172.9661 XXYY= -1012.0777 XXZZ=  -774.5137 YYZZ=  -793.3372
 XXYZ=  -230.7141 YYXZ=   133.2957 ZZXY=   -90.6017
 N-N= 1.484078342673D+03 E-N=-5.840035377166D+03  KE= 1.203014431198D+03
 ***** Axes restored to original set *****
 -------------------------------------------------------------------
 Center     Atomic                   Forces (Hartrees/Bohr)
 Number     Number              X              Y              Z
 -------------------------------------------------------------------
    1          1          -0.014124788   -0.031292544    0.089189262
    2          8          -0.070584079    0.038386575   -0.003437931
    3          1           0.036371861   -0.014475297   -0.086456725
    4          1           0.025677194   -0.019377920    0.042394106
    5          8          -0.385361407   -0.018885422   -0.181100125
    6          1          -0.183266516   -0.016936706    0.080109334
    7          1          -0.024330258   -0.039976489    0.084577334
    8          8          -0.030608522    0.032618825   -0.005008222
    9          1           0.052929753    0.007126129   -0.075739720
   10          1          -0.041798830   -0.017613102    0.084876074
   11          8           0.010666328    0.037924774    0.002460382
   12          1           0.017094640   -0.022613435   -0.105873775
   13          1           0.066031139    0.010340663    0.040618879
   14          8          -0.255889813    0.109462149   -0.115707822
   15          1          -0.100963656   -0.033181019   -0.016749160
   16          1          -0.024730678   -0.031376916    0.083924857
   17          8          -0.020172287    0.042565871   -0.007377456
   18          1           0.044045966   -0.011263925   -0.080088422
   19          1          -0.064517393   -0.039174382    0.049452702
   20          8           0.017210198    0.040083887    0.029252860
   21          1           0.051477123   -0.000487539   -0.075395595
   22          1           0.009398330    0.039059872    0.081289144
   23          8           0.007035435    0.035755537   -0.039286020
   24          1          -0.016409928   -0.078613454   -0.051567944
   25          1           0.051173303    0.067933643    0.033136731
   26          8          -0.010474686    0.014401467   -0.040858585
   27          1          -0.035190339   -0.082454688    0.012434772
   28          1          -0.074689488   -0.016857272    0.035118251
   29          8           0.077291561    0.027438123    0.020911135
   30          1           0.031147639   -0.005205427   -0.077661962
   31          1          -0.005057257   -0.020803757    0.013388332
   32          8           0.479081579    0.031618742   -0.035544330
   33          1           0.081819965    0.049996390    0.095920523
   34          1           0.000418496   -0.008395695    0.090376728
   35          8           0.033040219    0.038011421   -0.004904934
   36          1          -0.028344270   -0.029197042   -0.080011305
   37          1           0.049415199    0.013066797    0.074949578
   38          8           0.007899580    0.045314420   -0.024533327
   39          1          -0.055613471   -0.054919457   -0.044718229
   40          1          -0.011557461   -0.051835718    0.069149487
   41          8           0.233247374    0.000047044    0.051895572
   42          1           0.075814645   -0.039915203   -0.011436730
   43          1          -0.006739835    0.084979795    0.028914357
   44          8          -0.017768137   -0.000577875   -0.049244597
   45          1           0.024633662   -0.082546645    0.020000553
   46          1          -0.060035887    0.058167707    0.039918684
   47          8           0.008998114    0.022807015   -0.038623190
   48          1           0.046309682   -0.079129916   -0.002933528
 -------------------------------------------------------------------
 Cartesian Forces:  Max     0.479081579 RMS     0.078969264
 ------------------------------------------------------------------------
           Internal Coordinate Forces (Hartree/Bohr or radian)
 Cent Atom N1     Length/X     N2     Alpha/Y      N3      Beta/Z       J
 ------------------------------------------------------------------------
   1  H        -0.014125(   1)     -0.031293(  49)      0.089189(  97)
   2  O        -0.070584(   2)      0.038387(  50)     -0.003438(  98)
   3  H         0.036372(   3)     -0.014475(  51)     -0.086457(  99)
   4  H         0.025677(   4)     -0.019378(  52)      0.042394( 100)
   5  O        -0.385361(   5)     -0.018885(  53)     -0.181100( 101)
   6  H        -0.183267(   6)     -0.016937(  54)      0.080109( 102)
   7  H        -0.024330(   7)     -0.039976(  55)      0.084577( 103)
   8  O        -0.030609(   8)      0.032619(  56)     -0.005008( 104)
   9  H         0.052930(   9)      0.007126(  57)     -0.075740( 105)
  10  H        -0.041799(  10)     -0.017613(  58)      0.084876( 106)
  11  O         0.010666(  11)      0.037925(  59)      0.002460( 107)
  12  H         0.017095(  12)     -0.022613(  60)     -0.105874( 108)
  13  H         0.066031(  13)      0.010341(  61)      0.040619( 109)
  14  O        -0.255890(  14)      0.109462(  62)     -0.115708( 110)
  15  H        -0.100964(  15)     -0.033181(  63)     -0.016749( 111)
  16  H        -0.024731(  16)     -0.031377(  64)      0.083925( 112)
  17  O        -0.020172(  17)      0.042566(  65)     -0.007377( 113)
  18  H         0.044046(  18)     -0.011264(  66)     -0.080088( 114)
  19  H        -0.064517(  19)     -0.039174(  67)      0.049453( 115)
  20  O         0.017210(  20)      0.040084(  68)      0.029253( 116)
  21  H         0.051477(  21)     -0.000488(  69)     -0.075396( 117)
  22  H         0.009398(  22)      0.039060(  70)      0.081289( 118)
  23  O         0.007035(  23)      0.035756(  71)     -0.039286( 119)
  24  H        -0.016410(  24)     -0.078613(  72)     -0.051568( 120)
  25  H         0.051173(  25)      0.067934(  73)      0.033137( 121)
  26  O        -0.010475(  26)      0.014401(  74)     -0.040859( 122)
  27  H        -0.035190(  27)     -0.082455(  75)      0.012435( 123)
  28  H        -0.074689(  28)     -0.016857(  76)      0.035118( 124)
  29  O         0.077292(  29)      0.027438(  77)      0.020911( 125)
  30  H         0.031148(  30)     -0.005205(  78)     -0.077662( 126)
  31  H        -0.005057(  31)     -0.020804(  79)      0.013388( 127)
  32  O         0.479082(  32)      0.031619(  80)     -0.035544( 128)
  33  H         0.081820(  33)      0.049996(  81)      0.095921( 129)
  34  H         0.000418(  34)     -0.008396(  82)      0.090377( 130)
  35  O         0.033040(  35)      0.038011(  83)     -0.004905( 131)
  36  H        -0.028344(  36)     -0.029197(  84)     -0.080011( 132)
  37  H         0.049415(  37)      0.013067(  85)      0.074950( 133)
  38  O         0.007900(  38)      0.045314(  86)     -0.024533( 134)
  39  H        -0.055613(  39)     -0.054919(  87)     -0.044718( 135)
  40  H        -0.011557(  40)     -0.051836(  88)      0.069149( 136)
  41  O         0.233247(  41)      0.000047(  89)      0.051896( 137)
  42  H         0.075815(  42)     -0.039915(  90)     -0.011437( 138)
  43  H        -0.006740(  43)      0.084980(  91)      0.028914( 139)
  44  O        -0.017768(  44)     -0.000578(  92)     -0.049245( 140)
  45  H         0.024634(  45)     -0.082547(  93)      0.020001( 141)
  46  H        -0.060036(  46)      0.058168(  94)      0.039919( 142)
  47  O         0.008998(  47)      0.022807(  95)     -0.038623( 143)
  48  H         0.046310(  48)     -0.079130(  96)     -0.002934( 144)
 ------------------------------------------------------------------------
 Internal  Forces:  Max     0.479081579 RMS     0.078969264

 GradGradGradGradGradGradGradGradGradGradGradGradGradGradGradGradGradGrad
 Berny optimization.
 Search for a local minimum.
 Step number   1 out of a maximum of   2
[...]
           Z28          0.04990
           X29          0.07240
           Y29          0.05562
           Z29          0.02585
           X30          0.02057
           Y30          0.14006
           Z30          0.00726
           X31          0.01689
           Y31          0.01327
           Z31          0.03847
           X32         -0.00123
           Y32          0.00303
           Z32          0.00876
           X33         -0.04153
           Y33         -0.00290
           Z33         -0.00119
           X34         -0.20143
           Y34          0.07566
           Z34          0.00701
           X35          0.11263
           Y35         -0.08547
           Z35          0.00009
           X36          0.03123
           Y36          0.01482
           Z36         -0.02434
           X37          0.03454
           Y37         -0.10548
           Z37         -0.04389
           X38         -0.08034
           Y38         -0.04819
           Z38          0.01626
           X39         -0.08409
           Y39         -0.05211
           Z39          0.03780
           X40         -0.00724
           Y40         -0.00599
           Z40          0.00171
           X41         -0.01245
           Y41         -0.00217
           Z41          0.00167
           X42         -0.01438
           Y42          0.00129
           Z42         -0.00389
           X43         -0.06560
           Y43         -0.01808
           Z43         -0.05467
           X44          0.10299
           Y44         -0.01330
           Z44         -0.05063
           X45          0.04603
           Y45          0.00029
           Z45          0.02795
           X46          0.02120
           Y46          0.07117
           Z46         -0.03689
           X47          0.02684
           Y47          0.03970
           Z47         -0.00812
           X48          0.01560
           Y48          0.04426
           Z48          0.03654
 Eigenvalue  36 out of range, new value =    0.000100 Eigenvector:
                           1
           X1           0.11931
           Y1          -0.17987
           Z1           0.03145
           X2          -0.00664
           Y2          -0.12927
           Z2           0.05347
           X3           0.03707
           Y3           0.03210
           Z3           0.02134
           X4          -0.04049
           Y4           0.00686
           Z4           0.04004
           X5          -0.03911
           Y5           0.00446
           Z5           0.03169
           X6          -0.02934
           Y6           0.00431
           Z6           0.02883
           X7          -0.21023
           Y7           0.04441
           Z7          -0.03447
           X8           0.03559
           Y8           0.00738
           Z8          -0.02312
           X9           0.00360
           Y9          -0.19359
           Z9           0.00163
           X10          0.00965
           Y10         -0.03289
           Z10         -0.03806
           X11         -0.01993
           Y11          0.02366
           Z11         -0.02009
           X12         -0.00555
           Y12          0.07211
           Z12         -0.04525
           X13          0.01161
           Y13          0.06869
           Z13          0.01218
           X14          0.01038
           Y14          0.06860
           Z14          0.01481
           X15          0.01165
           Y15          0.06743
           Z15          0.01548
           X16          0.13945
           Y16          0.04779
           Z16          0.01218
           X17         -0.05195
           Y17         -0.05027
           Z17         -0.09356
           X18          0.09695
           Y18         -0.01865
           Z18         -0.01369
           X19         -0.13845
           Y19          0.06081
           Z19          0.15807
           X20         -0.14130
           Y20         -0.00366
           Z20          0.03300
           X21         -0.19569
           Y21         -0.13593
           Z21          0.03673
           X22          0.40740
           Y22          0.02694
           Z22         -0.03031
           X23          0.00025
           Y23         -0.01968
           Z23         -0.00927
           X24         -0.33092
           Y24          0.01188
           Z24          0.11406
           X25          0.00394
           Y25          0.06469
           Z25         -0.06240
           X26          0.09874
           Y26         -0.05300
           Z26         -0.03861
           X27          0.11987
           Y27         -0.02654
           Z27          0.06116
           X28         -0.03138
           Y28         -0.06116
           Z28         -0.18142
           X29         -0.01281
           Y29          0.04298
           Z29          0.00750
           X30          0.23105
           Y30         -0.13486
           Z30          0.09159
           X31         -0.04049
           Y31         -0.00156
           Z31          0.01195
           X32         -0.03595
           Y32          0.00100
           Z32          0.01939
           X33         -0.02585
           Y33          0.00249
           Z33          0.02188
           X34         -0.08790
           Y34         -0.00432
           Z34         -0.00425
           X35         -0.02606
           Y35         -0.00490
           Z35          0.00398
           X36          0.03391
           Y36         -0.01318
           Z36         -0.02375
           X37         -0.00193
           Y37          0.00466
           Z37         -0.00233
           X38          0.10608
           Y38         -0.09132
           Z38         -0.05951
           X39          0.06017
           Y39         -0.06424
           Z39         -0.01930
           X40          0.01161
           Y40          0.06591
           Z40          0.01967
           X41          0.00892
           Y41          0.06788
           Z41          0.01965
           X42          0.00793
           Y42          0.06966
           Z42          0.01678
           X43          0.10062
           Y43          0.10533
           Z43         -0.12339
           X44         -0.15427
           Y44          0.03991
           Z44         -0.04081
           X45          0.01546
           Y45          0.08344
           Z45         -0.09701
           X46         -0.02660
           Y46          0.03482
           Z46         -0.05345
           X47          0.11811
           Y47          0.07485
           Z47          0.08528
           X48          0.05452
           Y48          0.05291
           Z48          0.07985
 Quadratic step=6.218D+02 exceeds max=3.000D-01 adjusted using Lamda=-2.361D+00.
 Angle between NR and scaled steps=  84.71 degrees.
 Angle between quadratic step and forces=  11.41 degrees.
 Linear search not attempted -- first point.
 TrRot=  0.001560  0.002978 -0.002815  0.942557 -0.000078 -0.942446
 Variable       Old X    -DE/DX   Delta X   Delta X   Delta X     New X
                                 (Linear)    (Quad)   (Total)
    X1        0.00000  -0.01412   0.00000  -0.00687  -0.00531  -0.00531
    Y1        0.00000  -0.03129   0.00000  -0.01230  -0.00933  -0.00933
    Z1        0.00000   0.08919   0.00000   0.03499   0.03218   0.03218
    X2       -0.09572  -0.07058   0.00000  -0.02803  -0.02644  -0.12215
    Y2       -1.01654   0.03839   0.00000   0.00597   0.00882  -1.00772
    Z2        1.78893  -0.00344   0.00000   0.00286  -0.00002   1.78890
    X3       -1.37047   0.03637   0.00000   0.00984   0.01130  -1.35917
    Y3       -0.37544  -0.01448   0.00000  -0.00524  -0.00262  -0.37806
    Z3        3.27445  -0.08646   0.00000  -0.02964  -0.03254   3.24191
    X4        0.00000   0.02568   0.00000  -0.00206  -0.00076  -0.00076
    Y4        0.00000  -0.01938   0.00000  -0.00497  -0.00235  -0.00235
    Z4        5.66918   0.04239   0.00000   0.01504   0.01222   5.68140
    X5        1.75246  -0.38536   0.00000  -0.09910  -0.09772   1.65475
    Y5       -0.92885  -0.01889   0.00000  -0.01609  -0.01331  -0.94216
    Z5        6.22496  -0.18110   0.00000  -0.04394  -0.04674   6.17823
    X6        2.33109  -0.18327   0.00000  -0.07202  -0.07073   2.26036
    Y6       -0.94512  -0.01694   0.00000  -0.00495  -0.00224  -0.94736
    Z6        8.20176   0.08011   0.00000   0.02540   0.02263   8.22439
    X7        0.00000  -0.02433   0.00000  -0.01018  -0.00914  -0.00914
    Y7        0.00000  -0.03998   0.00000  -0.01484  -0.01258  -0.01258
    Z7       11.33836   0.08458   0.00000   0.03362   0.03081  11.36916
    X8       -0.27651  -0.03061   0.00000  -0.01181  -0.01068  -0.28719
    Y8       -1.37298   0.03262   0.00000   0.00536   0.00750  -1.36548
    Z8       12.84874  -0.00501   0.00000   0.00240  -0.00051  12.84823
    X9       -1.59755   0.05293   0.00000   0.01799   0.01900  -1.57855
    Y9       -0.97435   0.00713   0.00000   0.00292   0.00482  -0.96953
    Z9       14.37803  -0.07574   0.00000  -0.02581  -0.02876  14.34927
   X10        0.00000  -0.04180   0.00000  -0.01602  -0.01509  -0.01509
   Y10        5.66918  -0.01761   0.00000  -0.00695  -0.00397   5.66520
   Z10        0.00000   0.08488   0.00000   0.03327   0.03081   0.03081
   X11       -0.87719   0.01067   0.00000   0.00176   0.00272  -0.87447
   Y11        4.70379   0.03792   0.00000   0.00584   0.00862   4.71241
   Z11        1.59416   0.00246   0.00000   0.00421   0.00165   1.59581
   X12       -1.23007   0.01709   0.00000   0.00561   0.00638  -1.22369
   Y12        5.72052  -0.02261   0.00000  -0.00819  -0.00556   5.71496
   Z12        3.35044  -0.10587   0.00000  -0.03777  -0.04028   3.31016
   X13        0.00000   0.06603   0.00000   0.01350   0.01417   0.01417
   Y13        5.66918   0.01034   0.00000   0.00534   0.00796   5.67714
   Z13        5.66918   0.04062   0.00000   0.01135   0.00889   5.67807
   X14        1.86265  -0.25589   0.00000  -0.08344  -0.08279   1.77986
   Y14        5.48760   0.10946   0.00000   0.03394   0.03670   5.52430
   Z14        6.52961  -0.11571   0.00000  -0.03293  -0.03532   6.49429
   X15        3.34961  -0.10096   0.00000  -0.04369  -0.04317   3.30644
   Y15        6.83624  -0.03318   0.00000  -0.01384  -0.01087   6.82537
   Z15        6.06821  -0.01675   0.00000  -0.00716  -0.00940   6.05882
   X16        0.00000  -0.02473   0.00000  -0.00987  -0.00946  -0.00946
   Y16        5.66918  -0.03138   0.00000  -0.01157  -0.00931   5.65987
   Z16       11.33836   0.08392   0.00000   0.03262   0.03016  11.36852
   X17       -0.31782  -0.02017   0.00000  -0.00730  -0.00684  -0.32466
   Y17        4.49625   0.04257   0.00000   0.00897   0.01109   4.50735
   Z17       13.00149  -0.00738   0.00000   0.00127  -0.00127  13.00022
   X18       -1.34569   0.04405   0.00000   0.01561   0.01592  -1.32978
   Y18        5.25300  -0.01126   0.00000  -0.00387  -0.00196   5.25104
   Z18       14.61815  -0.08009   0.00000  -0.02784  -0.03038  14.58777
   X19        0.00000  -0.06452   0.00000  -0.02342  -0.02312  -0.02312
   Y19       11.33836  -0.03917   0.00000  -0.01518  -0.01221  11.32615
   Z19        0.00000   0.04945   0.00000   0.02062   0.01852   0.01852
   X20       -1.54497   0.01721   0.00000   0.00534   0.00574  -1.53923
   Y20       10.14211   0.04008   0.00000   0.00747   0.01024  10.15235
   Z20        0.65181   0.02925   0.00000   0.01292   0.01068   0.66249
   X21       -2.54300   0.05148   0.00000   0.01880   0.01906  -2.52394
   Y21       10.60168  -0.00049   0.00000  -0.00036   0.00219  10.60387
   Z21        2.39408  -0.07540   0.00000  -0.02543  -0.02769   2.36639
   X22        0.00000   0.00940   0.00000   0.00382   0.00385   0.00385
   Y22       11.33836   0.03906   0.00000   0.01368   0.01630  11.35466
   Z22        5.66918   0.08129   0.00000   0.03005   0.02795   5.69713
   X23        0.05224   0.00704   0.00000   0.00216   0.00206   0.05430
   Y23       11.78900   0.03576   0.00000   0.00667   0.00917  11.79817
   Z23        7.67840  -0.03929   0.00000  -0.00891  -0.01098   7.66742
   X24        0.46520  -0.01641   0.00000  -0.00560  -0.00594   0.45926
   Y24       13.71022  -0.07861   0.00000  -0.02957  -0.02707  13.68316
   Z24        8.29578  -0.05157   0.00000  -0.01897  -0.02091   8.27487
   X25        0.00000   0.05117   0.00000   0.01869   0.01846   0.01846
   Y25       11.33836   0.06793   0.00000   0.02415   0.02642  11.36477
   Z25       11.33836   0.03314   0.00000   0.01202   0.00992  11.34828
   X26        1.15486  -0.01047   0.00000  -0.00214  -0.00255   1.15231
   Y26       12.51771   0.01440   0.00000   0.00031   0.00263  12.52034
   Z26       12.57051  -0.04086   0.00000  -0.00885  -0.01083  12.55969
   X27        1.75046  -0.03519   0.00000  -0.01299  -0.01358   1.73688
   Y27       14.38877  -0.08245   0.00000  -0.03159  -0.02917  14.35960
   Z27       11.94829   0.01243   0.00000   0.00482   0.00298  11.95127
   X28        5.66918  -0.07469   0.00000  -0.02541  -0.02385   5.64532
   Y28        0.00000  -0.01686   0.00000  -0.00765  -0.00405  -0.00405
   Z28        0.00000   0.03512   0.00000   0.01532   0.01276   0.01276
   X29        3.70917   0.07729   0.00000   0.02382   0.02541   3.73458
   Y29       -0.45317   0.02744   0.00000   0.00386   0.00723  -0.44594
   Z29        0.44249   0.02091   0.00000   0.01012   0.00745   0.44994
   X30        3.05764   0.03115   0.00000   0.01128   0.01277   3.07042
   Y30       -0.42284  -0.00521   0.00000  -0.00397  -0.00079  -0.42363
   Z30        2.39630  -0.07766   0.00000  -0.02674  -0.02944   2.36686
   X31        5.66918  -0.00506   0.00000   0.00759   0.00889   5.67807
   Y31        0.00000  -0.02080   0.00000  -0.00424  -0.00098  -0.00098
   Z31        5.66918   0.01339   0.00000   0.00067  -0.00189   5.66729
   X32        4.23195   0.47908   0.00000   0.13139   0.13273   4.36469
   Y32       -0.88402   0.03162   0.00000   0.00284   0.00587  -0.87814
   Z32        6.85057  -0.03554   0.00000  -0.00823  -0.01090   6.83967
   X33        3.66426   0.08182   0.00000   0.03192   0.03308   3.69735
   Y33       -0.00019   0.05000   0.00000   0.01247   0.01532   0.01513
   Z33        8.62239   0.09592   0.00000   0.03359   0.03094   8.65334
   X34        5.66918   0.00042   0.00000   0.00022   0.00126   5.67044
   Y34        0.00000  -0.00840   0.00000  -0.00386  -0.00096  -0.00096
   Z34       11.33836   0.09038   0.00000   0.03501   0.03245  11.37081
   X35        5.40389   0.03304   0.00000   0.00912   0.01014   5.41403
   Y35       -0.60090   0.03801   0.00000   0.00663   0.00938  -0.59152
   Z35       13.29062  -0.00490   0.00000   0.00287   0.00027  13.29089
   X36        6.26210  -0.02834   0.00000  -0.01003  -0.00920   6.25291
   Y36        0.46989  -0.02920   0.00000  -0.01100  -0.00826   0.46163
   Z36       14.82674  -0.08001   0.00000  -0.02796  -0.03046  14.79628
   X37        5.66918   0.04942   0.00000   0.01794   0.01886   5.68804
   Y37        5.66918   0.01307   0.00000   0.00341   0.00702   5.67620
   Z37        0.00000   0.07495   0.00000   0.02837   0.02618   0.02618
   X38        6.61381   0.00790   0.00000   0.00066   0.00151   6.61532
   Y38        5.64182   0.04531   0.00000   0.00868   0.01228   5.65411
   Z38        1.83022  -0.02453   0.00000  -0.00324  -0.00540   1.82482
   X39        7.93668  -0.05561   0.00000  -0.02031  -0.01965   7.91702
   Y39        7.13868  -0.05492   0.00000  -0.02141  -0.01769   7.12099
   Z39        2.33242  -0.04472   0.00000  -0.01634  -0.01834   2.31407
   X40        5.66918  -0.01156   0.00000  -0.00166  -0.00099   5.66819
   Y40        5.66918  -0.05184   0.00000  -0.02231  -0.01905   5.65012
   Z40        5.66918   0.06915   0.00000   0.02645   0.02425   5.69342
   X41        4.95470   0.23325   0.00000   0.08054   0.08124   5.03595
   Y41        4.71140   0.00005   0.00000  -0.00282   0.00025   4.71166
   Z41        7.34697   0.05190   0.00000   0.02711   0.02482   7.37179
   X42        3.36759   0.07581   0.00000   0.03379   0.03436   3.40195
   Y42        5.50545  -0.03992   0.00000  -0.01998  -0.01715   5.48829
   Z42        8.39261  -0.01144   0.00000  -0.00339  -0.00571   8.38690
   X43        5.66918  -0.00674   0.00000  -0.00292  -0.00252   5.66666
   Y43        5.66918   0.08498   0.00000   0.02928   0.03217   5.70135
   Z43       11.33836   0.02891   0.00000   0.01026   0.00806  11.34642
   X44        5.59327  -0.01777   0.00000  -0.00609  -0.00593   5.58734
   Y44        7.39030  -0.00058   0.00000  -0.00477  -0.00196   7.38834
   Z44       12.46742  -0.04924   0.00000  -0.01160  -0.01370  12.45372
   X45        4.87297   0.02463   0.00000   0.00856   0.00857   4.88154
   Y45        9.13532  -0.08255   0.00000  -0.03226  -0.02947   9.10584
   Z45       11.64349   0.02000   0.00000   0.00750   0.00548  11.64898
   X46        5.66918  -0.06004   0.00000  -0.02179  -0.02149   5.64769
   Y46       11.33836   0.05817   0.00000   0.02002   0.02362  11.36198
   Z46        0.00000   0.03992   0.00000   0.01478   0.01294   0.01294
   X47        4.25642   0.00900   0.00000   0.00141   0.00155   4.25797
   Y47       12.20391   0.02281   0.00000   0.00119   0.00457  12.20848
   Z47        1.22381  -0.03862   0.00000  -0.00890  -0.01076   1.21305
   X48        3.62179   0.04631   0.00000   0.01796   0.01791   3.63970
   Y48       14.13077  -0.07913   0.00000  -0.03058  -0.02725  14.10352
   Z48        0.86708  -0.00293   0.00000  -0.00100  -0.00276   0.86431
         Item               Value     Threshold  Converged?
 Maximum Force            0.479082     0.000450     NO 
 RMS     Force            0.078969     0.000300     NO 
 Maximum Displacement     0.132733     0.001800     NO 
 RMS     Displacement     0.024922     0.001200     NO 
 Predicted change in Energy=-2.458635D-01
 GradGradGradGradGradGradGradGradGradGradGradGradGradGradGradGradGradGrad

 1\1\GINC-OUTBACK\Force\RHF\3-21G\H32O16\HUGH\11-Nov-2009\0\\# HF/3-21G
  force\\Generated by ASE Gaussian driver\\0,1\H,0.,0.,0.\O,-0.05065039
 73,-0.5379312541,0.9466596554\H,-0.7252199314,-0.1986753229,1.73276483
 71\H,0.,0.,3.\O,0.9273629018,-0.4915261543,3.2941089731\H,1.2335585285
 ,-0.5001336011,4.340182656\H,0.,0.,6.\O,-0.1463226067,-0.7265476458,6.
 7992610419\H,-0.8453879783,-0.5156063456,7.6085269896\H,0.,3.,0.\O,-0.
 4641882205,2.4891393071,0.8435938883\H,-0.6509270117,3.0271695982,1.77
 29764951\H,0.,3.,3.\O,0.9856725428,2.9039110862,3.4553202818\H,1.77253
 81924,3.6175835614,3.2111604006\H,0.,3.,6.\O,-0.1681814294,2.379315291
 7,6.8800940289\H,-0.7121097029,2.7797670262,7.7355941409\H,0.,6.,0.\O,
 -0.8175612876,5.3669738527,0.3449223649\H,-1.3456976175,5.6101662308,1
 .2668928007\H,0.,6.,3.\O,0.0276433444,6.2384699752,4.0632346479\H,0.24
 61741146,7.2551365569,4.3899353734\H,0.,6.,6.\O,0.6111250449,6.6240863
 445,6.6520294581\H,0.9263059932,7.6142093934,6.3227616069\H,3.,0.,0.\O
 ,1.9628091836,-0.2398054527,0.2341549811\H,1.6180338075,-0.2237574109,
 1.2680661961\H,3.,0.,3.\O,2.2394531065,-0.4678007158,3.6251647088\H,1.
 9390454012,-0.000101574,4.5627748214\H,3.,0.,6.\O,2.8596164554,-0.3179
 825456,7.0330922326\H,3.3137611817,0.2486551645,7.8459724656\H,3.,3.,0
 .\O,3.4998761282,2.9855230332,0.9685113701\H,4.1999093939,3.7776279267
 ,1.23426175\H,3.,3.,3.\O,2.6219163056,2.4931677145,3.8878478217\H,1.78
 20542868,2.9133565733,4.4411769392\H,3.,3.,6.\O,2.9598304393,3.9107758
 601,6.5974727936\H,2.5786646696,4.8342011308,6.1614700122\H,3.,6.,0.\O
 ,2.2524013565,6.4580322172,0.6476131224\H,1.9165689108,7.4776792129,0.
 4588366075\\Version=AM64L-G03RevD.01\State=1-A\HF=-1208.2213828\RMSD=5
 .507e-09\RMSF=7.897e-02\Thermal=0.\Dipole=-0.0337397,8.460157,-3.82326
 97\PG=C01 [X(H32O16)]\\@


 The best way to pay for a lovely moment is to enjoy it.
 -- Richard Bach
 Job cpu time:  0 days  0 hours  0 minutes 47.1 seconds.
 File lengths (MBytes):  RWF=     37 Int=      0 D2E=      0 Chk=     10 Scr=      1
 Normal termination of Gaussian 03 at Wed Nov 11 11:21:35 2009.
