 Entering Gaussian System, Link 0=g03
 Input=gaussjob.com
 Output=gaussjob.log
 Initial command:
 /usr/local/g03/l1.exe /scratch/Gau-18040.inp -scrdir=/scratch/
 Entering Link 1 = /usr/local/g03/l1.exe PID=     18041.
  
 Copyright (c) 1988,1990,1992,1993,1995,1998,2003,2004, Gaussian, Inc.
                  All Rights Reserved.
  
 This is the Gaussian(R) 03 program.  It is based on the
 the Gaussian(R) 98 system (copyright 1998, Gaussian, Inc.),
 the Gaussian(R) 94 system (copyright 1995, Gaussian, Inc.),
 the Gaussian 92(TM) system (copyright 1992, Gaussian, Inc.),
 the Gaussian 90(TM) system (copyright 1990, Gaussian, Inc.),
 the Gaussian 88(TM) system (copyright 1988, Gaussian, Inc.),
 the Gaussian 86(TM) system (copyright 1986, Carnegie Mellon
 University), and the Gaussian 82(TM) system (copyright 1983,
 Carnegie Mellon University). Gaussian is a federally registered
 trademark of Gaussian, Inc.
  
 This software contains proprietary and confidential information,
 including trade secrets, belonging to Gaussian, Inc.
  
 This software is provided under written license and may be
 used, copied, transmitted, or stored only in accord with that
 written license.
  
 The following legend is applicable only to US Government
 contracts under FAR:
  
                    RESTRICTED RIGHTS LEGEND
  
 Use, reproduction and disclosure by the US Government is
 subject to restrictions as set forth in subparagraphs (a)
 and (c) of the Commercial Computer Software - Restricted
 Rights clause in FAR 52.227-19.
  
 Gaussian, Inc.
 340 Quinnipiac St., Bldg. 40, Wallingford CT 06492
  
  
 ---------------------------------------------------------------
 Warning -- This program may not be used in any manner that
 competes with the business of Gaussian, Inc. or will provide
 assistance to any competitor of Gaussian, Inc.  The licensee
 of this program is prohibited from giving any competitor of
 Gaussian, Inc. access to this program.  By using this program,
 the user acknowledges that Gaussian, Inc. is engaged in the
 business of creating and licensing software in the field of
 computational chemistry and represents and warrants to the
 licensee that it is not a competitor of Gaussian, Inc. and that
 it will not use this program in any manner prohibited above.
 ---------------------------------------------------------------
  

 Cite this work as:
 Gaussian 03, Revision D.01,
 M. J. Frisch, G. W. Trucks, H. B. Schlegel, G. E. Scuseria, 
 M. A. Robb, J. R. Cheeseman, J. A. Montgomery, Jr., T. Vreven, 
 K. N. Kudin, J. C. Burant, J. M. Millam, S. S. Iyengar, J. Tomasi, 
 V. Barone, B. Mennucci, M. Cossi, G. Scalmani, N. Rega, 
 G. A. Petersson, H. Nakatsuji, M. Hada, M. Ehara, K. Toyota, 
 R. Fukuda, J. Hasegawa, M. Ishida, T. Nakajima, Y. Honda, O. Kitao, 
 H. Nakai, M. Klene, X. Li, J. E. Knox, H. P. Hratchian, J. B. Cross, 
 V. Bakken, C. Adamo, J. Jaramillo, R. Gomperts, R. E. Stratmann, 
 O. Yazyev, A. J. Austin, R. Cammi, C. Pomelli, J. W. Ochterski, 
 P. Y. Ayala, K. Morokuma, G. A. Voth, P. Salvador, J. J. Dannenberg, 
 V. G. Zakrzewski, S. Dapprich, A. D. Daniels, M. C. Strain, 
 O. Farkas, D. K. Malick, A. D. Rabuck, K. Raghavachari, 
 J. B. Foresman, J. V. Ortiz, Q. Cui, A. G. Baboul, S. Clifford, 
 J. Cioslowski, B. B. Stefanov, G. Liu, A. Liashenko, P. Piskorz, 
 I. Komaromi, R. L. Martin, D. J. Fox, T. Keith, M. A. Al-Laham, 
 C. Y. Peng, A. Nanayakkara, M. Challacombe, P. M. W. Gill, 
 B. Johnson, W. Chen, M. W. Wong, C. Gonzalez, and J. A. Pople, 
 Gaussian, Inc., Wallingford CT, 2004.
 
 ******************************************
 Gaussian 03:  AM64L-G03RevD.01 13-Oct-2005
                25-Nov-2009 
 ******************************************
 %chk=gaussjob.chk
 %nprocs=1
 Will use up to    1 processors via shared memory.
 ---------------------------
 # HF/3-21G guess=read force
 ---------------------------
 1/10=7,30=1,38=1/1,3;
 2/17=6,18=5,40=1/2;
 3/5=5,11=9,16=1,25=1,30=1/1,2,3;
 4/5=1/1;
 5/5=2,38=6/2;
 6/7=2,8=2,9=2,10=2,28=1/1;
 7/29=1/1,2,3,16;
 1/10=7,30=1/3;
 99//99;
 --------------------------------
 Generated by ASE Gaussian driver
 --------------------------------
 Symbolic Z-matrix:
 Charge =  0 Multiplicity = 1
 H                     0.        0.        0. 
 H                     0.        0.        0.908 
 H                     0.27733   1.69591   1.93659 
 O                     1.29766   1.94851   2.22506 
 H                     1.48783   2.81339   2.86061 
 

 GradGradGradGradGradGradGradGradGradGradGradGradGradGradGradGradGradGrad
 Berny optimization.
 Initialization pass.
 Trust Radius=3.00D-01 FncErr=1.00D-07 GrdErr=1.00D-07
 Number of steps in this run=   2 maximum allowed number of steps=   2.
 GradGradGradGradGradGradGradGradGradGradGradGradGradGradGradGradGradGrad

                          Input orientation:                          
 ---------------------------------------------------------------------
 Center     Atomic     Atomic              Coordinates (Angstroms)
 Number     Number      Type              X           Y           Z
 ---------------------------------------------------------------------
    1          1             0        0.000000    0.000000    0.000000
    2          1             0        0.000000    0.000000    0.908000
    3          1             0        0.277327    1.695907    1.936592
    4          8             0        1.297660    1.948511    2.225060
    5          1             0        1.487832    2.813387    2.860610
 ---------------------------------------------------------------------
                    Distance matrix (angstroms):
                    1          2          3          4          5
     1  H    0.000000
     2  H    0.908000   0.000000
     3  H    2.589093   2.002752   0.000000
     4  O    3.229784   2.686124   1.090000   0.000000
     5  H    4.279238   3.733828   1.888886   1.090000   0.000000
 Stoichiometry    H4O
 Framework group  C1[X(H4O)]
 Deg. of freedom     9
 Full point group                 C1
 Largest Abelian subgroup         C1      NOp   1
 Largest concise Abelian subgroup C1      NOp   1
                         Standard orientation:                         
 ---------------------------------------------------------------------
 Center     Atomic     Atomic              Coordinates (Angstroms)
 Number     Number      Type              X           Y           Z
 ---------------------------------------------------------------------
    1          1             0       -2.745083   -0.205350   -0.297865
    2          1             0       -2.191213    0.124018    0.341829
    3          1             0       -0.312324    0.658346   -0.100081
    4          8             0        0.466886   -0.093990    0.022075
    5          1             0        1.513534    0.174906   -0.120482
 ---------------------------------------------------------------------
 Rotational constants (GHZ):    577.8310587     28.2607504     27.6439607
 Standard basis: 3-21G (6D, 7F)
 There are    17 symmetry adapted basis functions of A   symmetry.
 Integral buffers will be    131072 words long.
 Raffenetti 1 integral format.
 Two-electron integral symmetry is turned on.
    17 basis functions,    27 primitive gaussians,    17 cartesian basis functions
     6 alpha electrons        6 beta electrons
       nuclear repulsion energy        12.2514604941 Hartrees.
 NAtoms=    5 NActive=    5 NUniq=    5 SFac= 7.50D-01 NAtFMM=   80 NAOKFM=F Big=F
 One-electron integrals computed using PRISM.
 NBasis=    17 RedAO= T  NBF=    17
 NBsUse=    17 1.00D-06 NBFU=    17
 Initial guess read from the checkpoint file:
 gaussjob.chk
 Initial guess orbital symmetries:
       Occupied  (A) (A) (A) (A) (A) (A)
       Virtual   (A) (A) (A) (A) (A) (A) (A) (A) (A) (A) (A)
 Requested convergence on RMS density matrix=1.00D-08 within 128 cycles.
 Requested convergence on MAX density matrix=1.00D-06.
 Requested convergence on             energy=1.00D-06.
 No special actions if energy rises.
 Keep R1 integrals in memory in canonical form, NReq=      833612.
 SCF Done:  E(RHF) =  -76.6620188267     A.U. after   10 cycles
             Convg  =    0.2716D-08             -V/T =  2.0085
             S**2   =   0.0000

 **********************************************************************

            Population analysis using the SCF density.

 **********************************************************************

 Orbital symmetries:
       Occupied  (A) (A) (A) (A) (A) (A)
       Virtual   (A) (A) (A) (A) (A) (A) (A) (A) (A) (A) (A)
 The electronic state is 1-A.
 Alpha  occ. eigenvalues --  -20.43613  -1.25639  -0.64060  -0.54509  -0.48811
 Alpha  occ. eigenvalues --   -0.46329
 Alpha virt. eigenvalues --    0.18046   0.25453   0.34214   1.03029   1.11995
 Alpha virt. eigenvalues --    1.24548   1.37685   1.79240   1.87977   2.09980
 Alpha virt. eigenvalues --    3.01846
          Condensed to atoms (all electrons):
              1          2          3          4          5
     1  H    0.613993   0.374839  -0.000444  -0.000891   0.000048
     2  H    0.374839   0.636234  -0.000984   0.000453  -0.000020
     3  H   -0.000444  -0.000984   0.430368   0.237271  -0.021017
     4  O   -0.000891   0.000453   0.237271   8.230342   0.241095
     5  H    0.000048  -0.000020  -0.021017   0.241095   0.428364
 Mulliken atomic charges:
              1
     1  H    0.012456
     2  H   -0.010521
     3  H    0.354806
     4  O   -0.708270
     5  H    0.351529
 Sum of Mulliken charges=   0.00000
 Atomic charges with hydrogens summed into heavy atoms:
              1
     1  H    0.000000
     2  H    0.000000
     3  H    0.000000
     4  O    0.000000
     5  H    0.000000
 Sum of Mulliken charges=   0.00000
 Electronic spatial extent (au):  <R**2>=    77.9271
 Charge=     0.0000 electrons
 Dipole moment (field-independent basis, Debye):
    X=     0.4732    Y=     2.0049    Z=    -0.5546  Tot=     2.1333
 Quadrupole moment (field-independent basis, Debye-Ang):
   XX=    -4.6239   YY=    -8.1759   ZZ=    -8.9418
   XY=     0.3859   XZ=    -0.0111   YZ=    -0.0374
 Traceless Quadrupole moment (field-independent basis, Debye-Ang):
   XX=     2.6233   YY=    -0.9287   ZZ=    -1.6946
   XY=     0.3859   XZ=    -0.0111   YZ=    -0.0374
 Octapole moment (field-independent basis, Debye-Ang**2):
  XXX=    10.6399  YYY=     1.0411  ZZZ=    -0.1927  XYY=     1.6828
  XXY=     0.2476  XXZ=    -2.1243  XZZ=     1.2795  YZZ=     0.1975
  YYZ=    -0.1526  XYZ=    -0.4329
 Hexadecapole moment (field-independent basis, Debye-Ang**3):
 XXXX=   -81.4669 YYYY=    -7.9115 ZZZZ=    -7.4444 XXXY=     3.5978
 XXXZ=     4.5556 YYYX=    -0.4434 YYYZ=    -0.1231 ZZZX=     0.0953
 ZZZY=    -0.0403 XXYY=   -17.5362 XXZZ=   -16.4413 YYZZ=    -2.6205
 XXYZ=     0.8587 YYXZ=     0.1074 ZZXY=    -0.0345
 N-N= 1.225146049414D+01 E-N=-2.061799712207D+02  KE= 7.601222738968D+01
 ***** Axes restored to original set *****
 -------------------------------------------------------------------
 Center     Atomic                   Forces (Hartrees/Bohr)
 Number     Number              X              Y              Z
 -------------------------------------------------------------------
    1          1          -0.000824115   -0.000177784    0.081794785
    2          1           0.000414331   -0.002621238   -0.083362313
    3          1           0.075612574    0.042328350    0.036968566
    4          8          -0.036199607    0.026082955    0.015216993
    5          1          -0.039003184   -0.065612283   -0.050618031
 -------------------------------------------------------------------
 Cartesian Forces:  Max     0.083362313 RMS     0.046999103
 ------------------------------------------------------------------------
           Internal Coordinate Forces (Hartree/Bohr or radian)
 Cent Atom N1     Length/X     N2     Alpha/Y      N3      Beta/Z       J
 ------------------------------------------------------------------------
   1  H        -0.000824(   1)     -0.000178(   6)      0.081795(  11)
   2  H         0.000414(   2)     -0.002621(   7)     -0.083362(  12)
   3  H         0.075613(   3)      0.042328(   8)      0.036969(  13)
   4  O        -0.036200(   4)      0.026083(   9)      0.015217(  14)
   5  H        -0.039003(   5)     -0.065612(  10)     -0.050618(  15)
 ------------------------------------------------------------------------
 Internal  Forces:  Max     0.083362313 RMS     0.046999103

 GradGradGradGradGradGradGradGradGradGradGradGradGradGradGradGradGradGrad
 Berny optimization.
 Search for a local minimum.
 Step number   1 out of a maximum of   2
 All quantities printed in internal units (Hartrees-Bohrs-Radians)
 Second derivative matrix not updated -- first step.
 The second derivative matrix:
                          X1        Y1        Z1        X2        Y2
           X1           0.00000
           Y1           0.00000   0.00000
           Z1           0.00000   0.00000   0.23034
           X2           0.00000   0.00000   0.00000   0.00000
           Y2           0.00000   0.00000   0.00000   0.00000   0.00000
           Z2           0.00000   0.00000  -0.23034   0.00000   0.00000
           X3           0.00000   0.00000   0.00000   0.00000   0.00000
           Y3           0.00000   0.00000   0.00000   0.00000   0.00000
           Z3           0.00000   0.00000   0.00000   0.00000   0.00000
           X4           0.00000   0.00000   0.00000   0.00000   0.00000
           Y4           0.00000   0.00000   0.00000   0.00000   0.00000
           Z4           0.00000   0.00000   0.00000   0.00000   0.00000
           X5           0.00000   0.00000   0.00000   0.00000   0.00000
           Y5           0.00000   0.00000   0.00000   0.00000   0.00000
           Z5           0.00000   0.00000   0.00000   0.00000   0.00000
                          Z2        X3        Y3        Z3        X4
           Z2           0.23034
           X3           0.00000   0.30943
           Y3           0.00000   0.06546   0.04181
           Z3           0.00000   0.07955   0.03672   0.03460
           X4           0.00000  -0.32204  -0.03650  -0.06030   0.38153
           Y4           0.00000  -0.06299  -0.04748  -0.04049   0.07512
           Z4           0.00000  -0.07914  -0.03767  -0.03523   0.09411
           X5           0.00000   0.01261  -0.02896  -0.01925  -0.05949
           Y5           0.00000  -0.00247   0.00567   0.00377  -0.03862
           Z5           0.00000  -0.00041   0.00095   0.00063  -0.03381
                          Y4        Z4        X5        Y5        Z5
           Y4           0.27371
           Z4           0.20273   0.15425
           X5          -0.01213  -0.01497   0.04688
           Y5          -0.22624  -0.16506   0.04109   0.22057
           Z5          -0.16224  -0.11902   0.03423   0.16129   0.11839
     Eigenvalues ---    0.00000   0.00000   0.00000   0.00000   0.00000
     Eigenvalues ---    0.12559   0.46068   0.49207   0.72497
 Eigenvalue   1 out of range, new value =    0.000100 Eigenvector:
                           1
           X1          -0.26505
           Y1          -0.45419
           Z1           0.03453
           X2           0.48358
           Y2           0.48127
           Z2           0.03453
           X3          -0.12179
           Y3           0.22558
           Z3          -0.07754
           X4          -0.06446
           Y4           0.01426
           Z4          -0.09527
           X5           0.08557
           Y5          -0.29300
           Z5           0.27797
 Eigenvalue   2 out of range, new value =    0.000100 Eigenvector:
                           1
           X1          -0.38183
           Y1           0.39613
           Z1           0.15302
           X2           0.42451
           Y2          -0.29728
           Z2           0.15302
           X3           0.12371
           Y3           0.13825
           Z3          -0.54257
           X4           0.00092
           Y4          -0.10012
           Z4           0.10046
           X5          -0.16900
           Y5           0.04607
           Z5          -0.04763
 Quadratic step=3.869D+01 exceeds max=3.000D-01 adjusted using Lamda=-2.284D-01.
 Angle between NR and scaled steps=  85.89 degrees.
 Angle between quadratic step and forces=  18.48 degrees.
 Linear search not attempted -- first point.
 TrRot=  0.000036  0.000953  0.000907  1.926150 -0.000147 -1.925456
 MatCor failed.
 Variable       Old X    -DE/DX   Delta X   Delta X   Delta X     New X
                                 (Linear)    (Quad)   (Total)
    X1        0.00000  -0.00082   0.00000  -0.00403  -0.00399  -0.00399
    Y1        0.00000  -0.00018   0.00000  -0.00129  -0.00036  -0.00036
    Z1        0.00000   0.08179   0.00000   0.11583   0.11674   0.11674
    X2        0.00000   0.00041   0.00000   0.00196   0.00208   0.00208
    Y2        0.00000  -0.00262   0.00000  -0.01211  -0.01137  -0.01137
    Z2        1.71587  -0.08336   0.00000  -0.12383  -0.12293   1.59295
    X3        0.52407   0.07561   0.00000   0.11574   0.11367   0.63774
    Y3        3.20480   0.04233   0.00000   0.10854   0.10942   3.31422
    Z3        3.65963   0.03697   0.00000   0.08425   0.08558   3.74521
    X4        2.45222  -0.03620   0.00000  -0.00411  -0.00642   2.44580
    Y4        3.68215   0.02608   0.00000   0.00368   0.00575   3.68790
    Z4        4.20475   0.01522   0.00000   0.00324   0.00452   4.20928
    X5        2.81160  -0.03900   0.00000  -0.10203  -0.10534   2.70626
    Y5        5.31653  -0.06561   0.00000  -0.10554  -0.10344   5.21309
    Z5        5.40577  -0.05062   0.00000  -0.08541  -0.08393   5.32184
         Item               Value     Threshold  Converged?
 Maximum Force            0.083362     0.000450     NO 
 RMS     Force            0.046999     0.000300     NO 
 Maximum Displacement     0.122925     0.001800     NO 
 RMS     Displacement     0.077478     0.001200     NO 
 Predicted change in Energy=-3.619695D-02
 GradGradGradGradGradGradGradGradGradGradGradGradGradGradGradGradGradGrad

 1\1\GINC-OUTBACK\Force\RHF\3-21G\H4O1\HUGH\25-Nov-2009\0\\# HF/3-21G g
 uess=read force\\Generated by ASE Gaussian driver\\0,1\H,0.,0.,0.\H,0.
 ,0.,0.908\H,0.2773274915,1.6959073739,1.936592219\O,1.297659842,1.9485
 107177,2.2250596264\H,1.4878319966,2.8133865941,2.8606099943\\Version=
 AM64L-G03RevD.01\State=1-A\HF=-76.6620188\RMSD=2.716e-09\RMSF=4.700e-0
 2\Thermal=0.\Dipole=-0.6511754,0.4689339,0.2459597\PG=C01 [X(H4O1)]\\@


 THE WORLD IS MADE UP OF THE WILLS, THE WON'TS, AND THE CANT'S:
 THE WILLS DO EVERYTHING,
 THE WON'TS DO NOTHING,
 THE CAN'TS CAN'T DO ANYTHING.

                               -- FROM WALT DISNEY'S "BLACK HOLE"
 Job cpu time:  0 days  0 hours  0 minutes  5.7 seconds.
 File lengths (MBytes):  RWF=     13 Int=      0 D2E=      0 Chk=     10 Scr=      1
 Normal termination of Gaussian 03 at Wed Nov 25 15:52:22 2009.
