 Entering Gaussian System, Link 0=g03
 Input=gaussjob.com
 Output=gaussjob.log
 Initial command:
 /usr/local/g03/l1.exe /scratch/Gau-15340.inp -scrdir=/scratch/
 Entering Link 1 = /usr/local/g03/l1.exe PID=     15341.
  
 Copyright (c) 1988,1990,1992,1993,1995,1998,2003,2004, Gaussian, Inc.
                  All Rights Reserved.
  
 This is the Gaussian(R) 03 program.  It is based on the
 the Gaussian(R) 98 system (copyright 1998, Gaussian, Inc.),
 the Gaussian(R) 94 system (copyright 1995, Gaussian, Inc.),
 the Gaussian 92(TM) system (copyright 1992, Gaussian, Inc.),
 the Gaussian 90(TM) system (copyright 1990, Gaussian, Inc.),
 the Gaussian 88(TM) system (copyright 1988, Gaussian, Inc.),
 the Gaussian 86(TM) system (copyright 1986, Carnegie Mellon
 University), and the Gaussian 82(TM) system (copyright 1983,
 Carnegie Mellon University). Gaussian is a federally registered
 trademark of Gaussian, Inc.
  
 This software contains proprietary and confidential information,
 including trade secrets, belonging to Gaussian, Inc.
  
 This software is provided under written license and may be
 used, copied, transmitted, or stored only in accord with that
 written license.
  
 The following legend is applicable only to US Government
 contracts under FAR:
  
                    RESTRICTED RIGHTS LEGEND
  
 Use, reproduction and disclosure by the US Government is
 subject to restrictions as set forth in subparagraphs (a)
 and (c) of the Commercial Computer Software - Restricted
 Rights clause in FAR 52.227-19.
  
 Gaussian, Inc.
 340 Quinnipiac St., Bldg. 40, Wallingford CT 06492
  
  
 ---------------------------------------------------------------
 Warning -- This program may not be used in any manner that
 competes with the business of Gaussian, Inc. or will provide
 assistance to any competitor of Gaussian, Inc.  The licensee
 of this program is prohibited from giving any competitor of
 Gaussian, Inc. access to this program.  By using this program,
 the user acknowledges that Gaussian, Inc. is engaged in the
 business of creating and licensing software in the field of
 computational chemistry and represents and warrants to the
 licensee that it is not a competitor of Gaussian, Inc. and that
 it will not use this program in any manner prohibited above.
 ---------------------------------------------------------------
  

 Cite this work as:
 Gaussian 03, Revision D.01,
 M. J. Frisch, G. W. Trucks, H. B. Schlegel, G. E. Scuseria, 
 M. A. Robb, J. R. Cheeseman, J. A. Montgomery, Jr., T. Vreven, 
 K. N. Kudin, J. C. Burant, J. M. Millam, S. S. Iyengar, J. Tomasi, 
 V. Barone, B. Mennucci, M. Cossi, G. Scalmani, N. Rega, 
 G. A. Petersson, H. Nakatsuji, M. Hada, M. Ehara, K. Toyota, 
 R. Fukuda, J. Hasegawa, M. Ishida, T. Nakajima, Y. Honda, O. Kitao, 
 H. Nakai, M. Klene, X. Li, J. E. Knox, H. P. Hratchian, J. B. Cross, 
 V. Bakken, C. Adamo, J. Jaramillo, R. Gomperts, R. E. Stratmann, 
 O. Yazyev, A. J. Austin, R. Cammi, C. Pomelli, J. W. Ochterski, 
 P. Y. Ayala, K. Morokuma, G. A. Voth, P. Salvador, J. J. Dannenberg, 
 V. G. Zakrzewski, S. Dapprich, A. D. Daniels, M. C. Strain, 
 O. Farkas, D. K. Malick, A. D. Rabuck, K. Raghavachari, 
 J. B. Foresman, J. V. Ortiz, Q. Cui, A. G. Baboul, S. Clifford, 
 J. Cioslowski, B. B. Stefanov, G. Liu, A. Liashenko, P. Piskorz, 
 I. Komaromi, R. L. Martin, D. J. Fox, T. Keith, M. A. Al-Laham, 
 C. Y. Peng, A. Nanayakkara, M. Challacombe, P. M. W. Gill, 
 B. Johnson, W. Chen, M. W. Wong, C. Gonzalez, and J. A. Pople, 
 Gaussian, Inc., Wallingford CT, 2004.
 
 ******************************************
 Gaussian 03:  AM64L-G03RevD.01 13-Oct-2005
                 4-Nov-2009 
 ******************************************
 %chk=gaussjob.chk
 %nprocs=2
 Will use up to    2 processors via shared memory.
 ---------------------------
 # HF/3-21G guess=read force
 ---------------------------
 1/10=7,30=1,38=1/1,3;
 2/17=6,18=5,40=1/2;
 3/5=5,11=9,16=1,25=1,30=1/1,2,3;
 4/5=1/1;
 5/5=2,38=6/2;
 6/7=2,8=2,9=2,10=2,28=1/1;
 7/29=1/1,2,3,16;
 1/10=7,30=1/3;
 99//99;
 --------------------------------
 Generated by ASE Gaussian driver
 --------------------------------
 Symbolic Z-matrix:
 Charge =  0 Multiplicity = 1
 H                     0.        0.        0. 
 H                     0.        0.        0.908 
 H                     2.99951   0.99978   1.45344 
 O                     3.95881   1.00047   1.45446 
 H                     4.43903   1.00077   2.28491 
 

 GradGradGradGradGradGradGradGradGradGradGradGradGradGradGradGradGradGrad
 Berny optimization.
 Initialization pass.
 Trust Radius=3.00D-01 FncErr=1.00D-07 GrdErr=1.00D-07
 Number of steps in this run=   2 maximum allowed number of steps=   2.
 GradGradGradGradGradGradGradGradGradGradGradGradGradGradGradGradGradGrad

                          Input orientation:                          
 ---------------------------------------------------------------------
 Center     Atomic     Atomic              Coordinates (Angstroms)
 Number     Number      Type              X           Y           Z
 ---------------------------------------------------------------------
    1          1             0        0.000000    0.000000    0.000000
    2          1             0        0.000000    0.000000    0.908000
    3          1             0        2.999508    0.999778    1.453439
    4          8             0        3.958811    1.000465    1.454455
    5          1             0        4.439032    1.000772    2.284908
 ---------------------------------------------------------------------
                    Distance matrix (angstroms):
                    1          2          3          4          5
     1  H    0.000000
     2  H    0.908000   0.000000
     3  H    3.479811   3.208443   0.000000
     4  O    4.334576   4.119675   0.959304   0.000000
     5  H    5.091891   4.754201   1.662400   0.959304   0.000000
 Stoichiometry    H4O
 Framework group  C1[X(H4O)]
 Deg. of freedom     9
 Full point group                 C1
 Largest Abelian subgroup         C1      NOp   1
 Largest concise Abelian subgroup C1      NOp   1
                         Standard orientation:                         
 ---------------------------------------------------------------------
 Center     Atomic     Atomic              Coordinates (Angstroms)
 Number     Number      Type              X           Y           Z
 ---------------------------------------------------------------------
    1          1             0        3.605690   -0.392541   -0.050815
    2          1             0        3.359611    0.480618   -0.012054
    3          1             0        0.178407    0.140548    0.229600
    4          8             0       -0.718848   -0.100664   -0.009177
    5          1             0       -1.392924    0.576688   -0.093315
 ---------------------------------------------------------------------
 Rotational constants (GHZ):    540.2833998     15.2329747     14.8725427
 Standard basis: 3-21G (6D, 7F)
 There are    17 symmetry adapted basis functions of A   symmetry.
 Integral buffers will be    131072 words long.
 Raffenetti 1 integral format.
 Two-electron integral symmetry is turned on.
    17 basis functions,    27 primitive gaussians,    17 cartesian basis functions
     6 alpha electrons        6 beta electrons
       nuclear repulsion energy        12.2636439603 Hartrees.
 NAtoms=    5 NActive=    5 NUniq=    5 SFac= 7.50D-01 NAtFMM=   80 NAOKFM=F Big=F
 One-electron integrals computed using PRISM.
 NBasis=    17 RedAO= T  NBF=    17
 NBsUse=    17 1.00D-06 NBFU=    17
 Initial guess read from the checkpoint file:
 gaussjob.chk
 Initial guess orbital symmetries:
       Occupied  (A) (A) (A) (A) (A) (A)
       Virtual   (A) (A) (A) (A) (A) (A) (A) (A) (A) (A) (A)
 Requested convergence on RMS density matrix=1.00D-08 within 128 cycles.
 Requested convergence on MAX density matrix=1.00D-06.
 Requested convergence on             energy=1.00D-06.
 No special actions if energy rises.
 Keep R1 integrals in memory in canonical form, NReq=      833612.
 SCF Done:  E(RHF) =  -76.6891642246     A.U. after    9 cycles
             Convg  =    0.2592D-08             -V/T =  2.0037
             S**2   =   0.0000

 **********************************************************************

            Population analysis using the SCF density.

 **********************************************************************

 Orbital symmetries:
       Occupied  (A) (A) (A) (A) (A) (A)
       Virtual   (A) (A) (A) (A) (A) (A) (A) (A) (A) (A) (A)
 The electronic state is 1-A.
 Alpha  occ. eigenvalues --  -20.41254  -1.30908  -0.70580  -0.55320  -0.50529
 Alpha  occ. eigenvalues --   -0.46871
 Alpha virt. eigenvalues --    0.20505   0.26445   0.36951   1.00885   1.20729
 Alpha virt. eigenvalues --    1.29329   1.35753   1.79222   1.84396   2.06752
 Alpha virt. eigenvalues --    3.09268
          Condensed to atoms (all electrons):
              1          2          3          4          5
     1  H    0.612184   0.376221   0.000164  -0.000005   0.000000
     2  H    0.376221   0.634229   0.000352  -0.000009  -0.000001
     3  H    0.000164   0.000352   0.374506   0.269288  -0.029993
     4  O   -0.000005  -0.000009   0.269288   8.232944   0.269357
     5  H    0.000000  -0.000001  -0.029993   0.269357   0.375390
 Mulliken atomic charges:
              1
     1  H    0.011437
     2  H   -0.010792
     3  H    0.385683
     4  O   -0.771575
     5  H    0.385247
 Sum of Mulliken charges=   0.00000
 Atomic charges with hydrogens summed into heavy atoms:
              1
     1  H    0.000000
     2  H    0.000000
     3  H    0.000000
     4  O    0.000000
     5  H    0.000000
 Sum of Mulliken charges=   0.00000
 Electronic spatial extent (au):  <R**2>=   128.7985
 Charge=     0.0000 electrons
 Dipole moment (field-independent basis, Debye):
    X=     0.5313    Y=     2.0399    Z=     0.3487  Tot=     2.1366
 Quadrupole moment (field-independent basis, Debye-Ang):
   XX=    -6.4886   YY=    -7.6382   ZZ=    -8.8803
   XY=    -2.4464   XZ=     0.3942   YZ=    -0.0303
 Traceless Quadrupole moment (field-independent basis, Debye-Ang):
   XX=     1.1804   YY=     0.0309   ZZ=    -1.2113
   XY=    -2.4464   XZ=     0.3942   YZ=    -0.0303
 Octapole moment (field-independent basis, Debye-Ang**2):
  XXX=   -12.6403  YYY=     1.0283  ZZZ=     0.2342  XYY=    -1.8992
  XXY=     1.2766  XXZ=    -0.5082  XZZ=    -2.9064  YZZ=     0.2371
  YYZ=     0.0028  XYZ=     0.2504
 Hexadecapole moment (field-independent basis, Debye-Ang**3):
 XXXX=  -175.6237 YYYY=    -8.4971 ZZZZ=    -6.3731 XXXY=   -12.2448
 XXXZ=     0.8289 YYYX=    -1.6938 YYYZ=    -0.0537 ZZZX=     0.4562
 ZZZY=    -0.0148 XXYY=   -25.0276 XXZZ=   -32.6546 YYZZ=    -2.5392
 XXYZ=     0.1630 YYXZ=     0.1914 ZZXY=    -0.4658
 N-N= 1.226364396027D+01 E-N=-2.064031842010D+02  KE= 7.640679747904D+01
 ***** Axes restored to original set *****
 -------------------------------------------------------------------
 Center     Atomic                   Forces (Hartrees/Bohr)
 Number     Number              X              Y              Z
 -------------------------------------------------------------------
    1          1           0.000260448    0.000096268    0.081351915
    2          1          -0.000158184   -0.000050359   -0.081236952
    3          1           0.001035506   -0.000084463    0.019718523
    4          8           0.016664591    0.000054709   -0.028774610
    5          1          -0.017802361   -0.000016155    0.008941125
 -------------------------------------------------------------------
 Cartesian Forces:  Max     0.081351915 RMS     0.031738660
 ------------------------------------------------------------------------
           Internal Coordinate Forces (Hartree/Bohr or radian)
 Cent Atom N1     Length/X     N2     Alpha/Y      N3      Beta/Z       J
 ------------------------------------------------------------------------
   1  H         0.000260(   1)      0.000096(   6)      0.081352(  11)
   2  H        -0.000158(   2)     -0.000050(   7)     -0.081237(  12)
   3  H         0.001036(   3)     -0.000084(   8)      0.019719(  13)
   4  O         0.016665(   4)      0.000055(   9)     -0.028775(  14)
   5  H        -0.017802(   5)     -0.000016(  10)      0.008941(  15)
 ------------------------------------------------------------------------
 Internal  Forces:  Max     0.081351915 RMS     0.031738660

 GradGradGradGradGradGradGradGradGradGradGradGradGradGradGradGradGradGrad
 Berny optimization.
 Search for a local minimum.
 Step number   1 out of a maximum of   2
 All quantities printed in internal units (Hartrees-Bohrs-Radians)
 Second derivative matrix not updated -- first step.
 The second derivative matrix:
                          X1        Y1        Z1        X2        Y2
           X1           0.00000
           Y1           0.00000   0.00000
           Z1           0.00000   0.00000   0.23034
           X2           0.00000   0.00000   0.00000   0.00000
           Y2           0.00000   0.00000   0.00000   0.00000   0.00000
           Z2           0.00000   0.00000  -0.23034   0.00000   0.00000
           X3           0.00000   0.00000   0.00000   0.00000   0.00000
           Y3           0.00000   0.00000   0.00000   0.00000   0.00000
           Z3           0.00000   0.00000   0.00000   0.00000   0.00000
           X4           0.00000   0.00000   0.00000   0.00000   0.00000
           Y4           0.00000   0.00000   0.00000   0.00000   0.00000
           Z4           0.00000   0.00000   0.00000   0.00000   0.00000
           X5           0.00000   0.00000   0.00000   0.00000   0.00000
           Y5           0.00000   0.00000   0.00000   0.00000   0.00000
           Z5           0.00000   0.00000   0.00000   0.00000   0.00000
                          Z2        X3        Y3        Z3        X4
           Z2           0.23034
           X3           0.00000   0.55623
           Y3           0.00000   0.00040   0.00000
           Z3           0.00000   0.00054   0.00000   0.04869
           X4           0.00000  -0.55628  -0.00040   0.04161   0.73220
           Y4           0.00000  -0.00040   0.00000   0.00003   0.00052
           Z4           0.00000  -0.00051   0.00000  -0.07306   0.17831
           X5           0.00000   0.00004   0.00000  -0.04215  -0.17592
           Y5           0.00000   0.00000   0.00000  -0.00003  -0.00012
           Z5           0.00000  -0.00003   0.00000   0.02437  -0.21992
                          Y4        Z4        X5        Y5        Z5
           Y4           0.00000
           Z4           0.00010   0.52648
           X5          -0.00012  -0.17780   0.17587
           Y5           0.00000  -0.00011   0.00012   0.00000
           Z5          -0.00014  -0.45342   0.21995   0.00014   0.42905
     Eigenvalues ---    0.00000   0.00000   0.00000   0.00000   0.00000
     Eigenvalues ---    0.16398   0.46068   0.77404   1.14872
 Eigenvalue   1 out of range, new value =    0.000100 Eigenvector:
                           1
           X1           0.11966
           Y1           0.02439
           Z1          -0.00573
           X2          -0.14337
           Y2           0.21553
           Z2          -0.00573
           X3          -0.00871
           Y3          -0.91617
           Z3           0.07321
           X4          -0.00940
           Y4           0.16939
           Z4          -0.00579
           X5           0.05901
           Y5           0.19714
           Z5          -0.04537
 Eigenvalue   2 out of range, new value =    0.000100 Eigenvector:
                           1
           X1           0.19754
           Y1           0.39758
           Z1          -0.03969
           X2          -0.48762
           Y2          -0.43603
           Z2          -0.03969
           X3           0.03093
           Y3           0.10892
           Z3           0.16117
           X4           0.03132
           Y4          -0.20346
           Z4          -0.00026
           X5           0.17055
           Y5           0.50501
           Z5          -0.08104
 Quadratic step=3.700D+00 exceeds max=3.000D-01 adjusted using Lamda=-2.851D-02.
 Angle between NR and scaled steps=  82.41 degrees.
 Angle between quadratic step and forces=  23.05 degrees.
 Linear search not attempted -- first point.
 TrRot=  0.002134 -0.000678 -0.000096  0.553917  0.004642 -0.554897
 Variable       Old X    -DE/DX   Delta X   Delta X   Delta X     New X
                                 (Linear)    (Quad)   (Total)
    X1        0.00000   0.00026   0.00000   0.00672   0.00952   0.00952
    Y1        0.00000   0.00010   0.00000   0.00339   0.00311   0.00311
    Z1        0.00000   0.08135   0.00000   0.16818   0.16804   0.16804
    X2        0.00000  -0.00016   0.00000  -0.01215  -0.00390  -0.00390
    Y2        0.00000  -0.00005   0.00000  -0.00406  -0.00093  -0.00093
    Z2        1.71587  -0.08124   0.00000  -0.16419  -0.16425   1.55162
    X3        5.66825   0.00104   0.00000   0.03336   0.04857   5.71682
    Y3        1.88931  -0.00008   0.00000  -0.00365  -0.00297   1.88634
    Z3        2.74660   0.01972   0.00000   0.11248   0.08525   2.83185
    X4        7.48107   0.01666   0.00000   0.03387   0.04842   7.52949
    Y4        1.89061   0.00005   0.00000   0.00210   0.00060   1.89120
    Z4        2.74852  -0.02877   0.00000  -0.05426  -0.08866   2.65986
    X5        8.38855  -0.01780   0.00000  -0.12372  -0.10262   8.28593
    Y5        1.89118  -0.00002   0.00000  -0.00162   0.00019   1.89138
    Z5        4.31785   0.00894   0.00000   0.03699  -0.00038   4.31747
         Item               Value     Threshold  Converged?
 Maximum Force            0.081352     0.000450     NO 
 RMS     Force            0.031739     0.000300     NO 
 Maximum Displacement     0.168044     0.001800     NO 
 RMS     Displacement     0.075589     0.001200     NO 
 Predicted change in Energy=-1.825073D-02
 GradGradGradGradGradGradGradGradGradGradGradGradGradGradGradGradGradGrad

 1\1\GINC-OUTBACK\Force\RHF\3-21G\H4O1\HUGH\04-Nov-2009\0\\# HF/3-21G g
 uess=read force\\Generated by ASE Gaussian driver\\0,1\H,0.,0.,0.\H,0.
 ,0.,0.908\H,2.9995076045,0.9997782545,1.4534385913\O,3.9588106757,1.00
 04653353,1.4544551494\H,4.4390320166,1.0007715227,2.2849075911\\Versio
 n=AM64L-G03RevD.01\State=1-A\HF=-76.6891642\RMSD=2.592e-09\RMSF=3.174e
 -02\Thermal=0.\Dipole=-0.4322176,-0.0015549,0.7209881\PG=C01 [X(H4O1)]
 \\@


 Cherishing children is the mark of a civilized society.
 -- Joan Ganz Cooney
 Job cpu time:  0 days  0 hours  0 minutes  5.8 seconds.
 File lengths (MBytes):  RWF=     13 Int=      0 D2E=      0 Chk=     10 Scr=      1
 Normal termination of Gaussian 03 at Wed Nov  4 12:45:47 2009.
