 Entering Gaussian System, Link 0=g03
 Input=gaussjob.com
 Output=gaussjob.log
 Initial command:
 /usr/local/g03/l1.exe /scratch/Gau-21117.inp -scrdir=/scratch/
 Entering Link 1 = /usr/local/g03/l1.exe PID=     21118.
  
 Copyright (c) 1988,1990,1992,1993,1995,1998,2003,2004, Gaussian, Inc.
                  All Rights Reserved.
  
 This is the Gaussian(R) 03 program.  It is based on the
 the Gaussian(R) 98 system (copyright 1998, Gaussian, Inc.),
 the Gaussian(R) 94 system (copyright 1995, Gaussian, Inc.),
 the Gaussian 92(TM) system (copyright 1992, Gaussian, Inc.),
 the Gaussian 90(TM) system (copyright 1990, Gaussian, Inc.),
 the Gaussian 88(TM) system (copyright 1988, Gaussian, Inc.),
 the Gaussian 86(TM) system (copyright 1986, Carnegie Mellon
 University), and the Gaussian 82(TM) system (copyright 1983,
 Carnegie Mellon University). Gaussian is a federally registered
 trademark of Gaussian, Inc.
  
 This software contains proprietary and confidential information,
 including trade secrets, belonging to Gaussian, Inc.
  
 This software is provided under written license and may be
 used, copied, transmitted, or stored only in accord with that
 written license.
  
 The following legend is applicable only to US Government
 contracts under FAR:
  
                    RESTRICTED RIGHTS LEGEND
  
 Use, reproduction and disclosure by the US Government is
 subject to restrictions as set forth in subparagraphs (a)
 and (c) of the Commercial Computer Software - Restricted
 Rights clause in FAR 52.227-19.
  
 Gaussian, Inc.
 340 Quinnipiac St., Bldg. 40, Wallingford CT 06492
  
  
 ---------------------------------------------------------------
 Warning -- This program may not be used in any manner that
 competes with the business of Gaussian, Inc. or will provide
 assistance to any competitor of Gaussian, Inc.  The licensee
 of this program is prohibited from giving any competitor of
 Gaussian, Inc. access to this program.  By using this program,
 the user acknowledges that Gaussian, Inc. is engaged in the
 business of creating and licensing software in the field of
 computational chemistry and represents and warrants to the
 licensee that it is not a competitor of Gaussian, Inc. and that
 it will not use this program in any manner prohibited above.
 ---------------------------------------------------------------
  

 Cite this work as:
 Gaussian 03, Revision D.01,
 M. J. Frisch, G. W. Trucks, H. B. Schlegel, G. E. Scuseria, 
 M. A. Robb, J. R. Cheeseman, J. A. Montgomery, Jr., T. Vreven, 
 K. N. Kudin, J. C. Burant, J. M. Millam, S. S. Iyengar, J. Tomasi, 
 V. Barone, B. Mennucci, M. Cossi, G. Scalmani, N. Rega, 
 G. A. Petersson, H. Nakatsuji, M. Hada, M. Ehara, K. Toyota, 
 R. Fukuda, J. Hasegawa, M. Ishida, T. Nakajima, Y. Honda, O. Kitao, 
 H. Nakai, M. Klene, X. Li, J. E. Knox, H. P. Hratchian, J. B. Cross, 
 V. Bakken, C. Adamo, J. Jaramillo, R. Gomperts, R. E. Stratmann, 
 O. Yazyev, A. J. Austin, R. Cammi, C. Pomelli, J. W. Ochterski, 
 P. Y. Ayala, K. Morokuma, G. A. Voth, P. Salvador, J. J. Dannenberg, 
 V. G. Zakrzewski, S. Dapprich, A. D. Daniels, M. C. Strain, 
 O. Farkas, D. K. Malick, A. D. Rabuck, K. Raghavachari, 
 J. B. Foresman, J. V. Ortiz, Q. Cui, A. G. Baboul, S. Clifford, 
 J. Cioslowski, B. B. Stefanov, G. Liu, A. Liashenko, P. Piskorz, 
 I. Komaromi, R. L. Martin, D. J. Fox, T. Keith, M. A. Al-Laham, 
 C. Y. Peng, A. Nanayakkara, M. Challacombe, P. M. W. Gill, 
 B. Johnson, W. Chen, M. W. Wong, C. Gonzalez, and J. A. Pople, 
 Gaussian, Inc., Wallingford CT, 2004.
 
 ******************************************
 Gaussian 03:  AM64L-G03RevD.01 13-Oct-2005
                30-Oct-2009 
 ******************************************
 %chk=gaussjob.chk
 ----------------
 # HF/3-21G force
 ----------------
 1/10=7,30=1,38=1/1,3;
 2/17=6,18=5,40=1/2;
 3/5=5,11=9,16=1,25=1,30=1/1,2,3;
 4//1;
 5/5=2,38=5/2;
 6/7=2,8=2,9=2,10=2,28=1/1;
 7/29=1/1,2,3,16;
 1/10=7,30=1/3;
 99//99;
 --------------------------------
 Generated by ASE Gaussian driver
 --------------------------------
 Symbolic Z-matrix:
 Charge =  0 Multiplicity = 1
 H                     0.        0.        0. 
 H                     0.        0.        0.908 
 H                     3.        1.        1.454 
 O                     4.09      1.        1.454 
 H                     4.63665   1.        2.39702 
 H                     1.        1.        1.454 
 O                     2.09      1.        1.454 
 H                     2.63665   1.        2.39702 
 C                     1.       -1.        1.454 
 H                     2.09     -1.        1.454 
 H                     0.63615  -1.        0.42652 
 H                     0.63615  -1.88982   1.96774 
 H                     0.63615  -0.11018   1.96774 
 

 GradGradGradGradGradGradGradGradGradGradGradGradGradGradGradGradGradGrad
 Berny optimization.
 Initialization pass.
 Trust Radius=3.00D-01 FncErr=1.00D-07 GrdErr=1.00D-07
 Number of steps in this run=   2 maximum allowed number of steps=   2.
 GradGradGradGradGradGradGradGradGradGradGradGradGradGradGradGradGradGrad

                          Input orientation:                          
 ---------------------------------------------------------------------
 Center     Atomic     Atomic              Coordinates (Angstroms)
 Number     Number      Type              X           Y           Z
 ---------------------------------------------------------------------
    1          1             0        0.000000    0.000000    0.000000
    2          1             0        0.000000    0.000000    0.908000
    3          1             0        3.000000    1.000000    1.454000
    4          8             0        4.090000    1.000000    1.454000
    5          1             0        4.636647    1.000000    2.397015
    6          1             0        1.000000    1.000000    1.454000
    7          8             0        2.090000    1.000000    1.454000
    8          1             0        2.636647    1.000000    2.397015
    9          6             0        1.000000   -1.000000    1.454000
   10          1             0        2.090000   -1.000000    1.454000
   11          1             0        0.636151   -1.000000    0.426521
   12          1             0        0.636151   -1.889823    1.967740
   13          1             0        0.636151   -0.110177    1.967740
 ---------------------------------------------------------------------
                    Distance matrix (angstroms):
                    1          2          3          4          5
     1  H    0.000000
     2  H    0.908000   0.000000
     3  H    3.480534   3.209068   0.000000
     4  O    4.454460   4.245729   1.090000   0.000000
     5  H    5.314525   4.971485   1.888886   1.090000   0.000000
     6  H    2.028328   1.515954   2.000000   3.090000   3.756924
     7  O    2.735364   2.380381   0.910000   2.000000   2.715637
     8  H    3.701025   3.188898   1.010595   1.732488   2.000000
     9  C    2.028328   1.515954   2.828427   3.680774   4.256111
    10  H    2.735364   2.380381   2.197294   2.828427   3.372638
    11  H    1.259606   1.279261   3.262437   4.121261   4.887414
    12  H    2.801449   2.258134   3.768659   4.532558   4.953718
    13  H    2.070948   1.240917   2.661617   3.664082   4.173816
                    6          7          8          9         10
     6  H    0.000000
     7  O    1.090000   0.000000
     8  H    1.888886   1.090000   0.000000
     9  C    2.000000   2.277740   2.750980   0.000000
    10  H    2.277740   2.000000   2.277740   1.090000   0.000000
    11  H    2.277740   2.677572   3.447439   1.090000   1.780279
    12  H    2.957599   3.275467   3.540811   1.090000   1.780279
    13  H    1.276247   1.900026   2.327822   1.090000   1.780279
                   11         12         13
    11  H    0.000000
    12  H    1.779646   0.000000
    13  H    1.779646   1.779646   0.000000
 Stoichiometry    CH10O2
 Framework group  C1[X(CH10O2)]
 Deg. of freedom    33
 Full point group                 C1
 Largest Abelian subgroup         C1      NOp   1
 Largest concise Abelian subgroup C1      NOp   1
                         Standard orientation:                         
 ---------------------------------------------------------------------
 Center     Atomic     Atomic              Coordinates (Angstroms)
 Number     Number      Type              X           Y           Z
 ---------------------------------------------------------------------
    1          1             0        2.207799    1.084786    1.016490
    2          1             0        2.120319    0.871786    0.138172
    3          1             0       -1.021767    0.226509    0.043154
    4          8             0       -1.966422   -0.272907    0.258354
    5          1             0       -2.531029   -0.744584   -0.545909
    6          1             0        0.711544    1.142870   -0.351708
    7          8             0       -0.233110    0.643453   -0.136508
    8          1             0       -0.797718    0.171776   -0.940771
    9          6             0        1.690577   -0.571822   -0.033389
   10          1             0        0.745922   -1.071239    0.181811
   11          1             0        2.104899   -0.164085    0.888667
   12          1             0        2.391996   -1.288514   -0.460546
   13          1             0        1.520831    0.237258   -0.743794
 ---------------------------------------------------------------------
 Rotational constants (GHZ):     21.3200041      3.8131056      3.4607116
 Standard basis: 3-21G (6D, 7F)
 There are    47 symmetry adapted basis functions of A   symmetry.
 Integral buffers will be    131072 words long.
 Raffenetti 1 integral format.
 Two-electron integral symmetry is turned on.
    47 basis functions,    75 primitive gaussians,    47 cartesian basis functions
    16 alpha electrons       16 beta electrons
       nuclear repulsion energy       108.5521242389 Hartrees.
 NAtoms=   13 NActive=   13 NUniq=   13 SFac= 7.50D-01 NAtFMM=   80 NAOKFM=F Big=F
 One-electron integrals computed using PRISM.
 NBasis=    47 RedAO= T  NBF=    47
 NBsUse=    47 1.00D-06 NBFU=    47
 Harris functional with IExCor=  205 diagonalized for initial guess.
 ExpMin= 1.83D-01 ExpMax= 3.22D+02 ExpMxC= 3.22D+02 IAcc=1 IRadAn=         1 AccDes= 1.00D-06
 HarFok:  IExCor= 205 AccDes= 1.00D-06 IRadAn=         1 IDoV=1
 ScaDFX=  1.000000  1.000000  1.000000  1.000000
 Initial guess orbital symmetries:
       Occupied  (A) (A) (A) (A) (A) (A) (A) (A) (A) (A) (A) (A)
                 (A) (A) (A) (A)
       Virtual   (A) (A) (A) (A) (A) (A) (A) (A) (A) (A) (A) (A)
                 (A) (A) (A) (A) (A) (A) (A) (A) (A) (A) (A) (A)
                 (A) (A) (A) (A) (A) (A) (A)
 The electronic state of the initial guess is 1-A.
 Requested convergence on RMS density matrix=1.00D-08 within 128 cycles.
 Requested convergence on MAX density matrix=1.00D-06.
 Requested convergence on             energy=1.00D-06.
 No special actions if energy rises.
 Keep R1 integrals in memory in canonical form, NReq=     1517477.
 SCF Done:  E(RHF) =  -191.826594691     A.U. after   12 cycles
             Convg  =    0.9709D-08             -V/T =  1.9965
             S**2   =   0.0000

 **********************************************************************

            Population analysis using the SCF density.

 **********************************************************************

 Orbital symmetries:
       Occupied  (A) (A) (A) (A) (A) (A) (A) (A) (A) (A) (A) (A)
                 (A) (A) (A) (A)
       Virtual   (A) (A) (A) (A) (A) (A) (A) (A) (A) (A) (A) (A)
                 (A) (A) (A) (A) (A) (A) (A) (A) (A) (A) (A) (A)
                 (A) (A) (A) (A) (A) (A) (A)
 The electronic state is 1-A.
 Alpha  occ. eigenvalues --  -20.51761 -20.32633 -11.16855  -1.47540  -1.18993
 Alpha  occ. eigenvalues --   -1.04446  -0.86686  -0.71407  -0.66746  -0.63817
 Alpha  occ. eigenvalues --   -0.60400  -0.51715  -0.47418  -0.41510  -0.38830
 Alpha  occ. eigenvalues --   -0.38520
 Alpha virt. eigenvalues --    0.14362   0.19626   0.22468   0.29779   0.31983
 Alpha virt. eigenvalues --    0.32653   0.38114   0.43944   0.69126   0.87729
 Alpha virt. eigenvalues --    0.94345   0.95306   1.04194   1.13008   1.16022
 Alpha virt. eigenvalues --    1.23842   1.28647   1.32219   1.33721   1.35998
 Alpha virt. eigenvalues --    1.38992   1.49700   1.81292   1.86888   1.92885
 Alpha virt. eigenvalues --    1.98485   2.05697   2.25889   2.49456   3.11083
 Alpha virt. eigenvalues --    3.75549
          Condensed to atoms (all electrons):
              1          2          3          4          5          6
     1  H    0.788395   0.517653  -0.000310  -0.000009   0.000000   0.012558
     2  H    0.517653   0.935039  -0.000560  -0.000020   0.000003   0.025889
     3  H   -0.000310  -0.000560   0.294737   0.220157  -0.042772   0.007794
     4  O   -0.000009  -0.000020   0.220157   8.521014   0.228161   0.004925
     5  H    0.000000   0.000003  -0.042772   0.228161   0.562296  -0.000330
     6  H    0.012558   0.025889   0.007794   0.004925  -0.000330   0.328295
     7  O   -0.001659  -0.012963   0.046142  -0.171203   0.007372   0.213356
     8  H    0.000109   0.000408  -0.088662   0.050500   0.013914   0.001384
     9  C   -0.189315  -0.289407   0.000934  -0.001769   0.000099  -0.040217
    10  H    0.007697   0.011347  -0.001732   0.005846   0.000117   0.001022
    11  H   -0.065421  -0.089447  -0.000167   0.000012  -0.000003  -0.003359
    12  H    0.006798   0.013319   0.000038   0.000001   0.000000   0.001094
    13  H   -0.047950  -0.075306   0.000551  -0.000020  -0.000048  -0.013375
              7          8          9         10         11         12
     1  H   -0.001659   0.000109  -0.189315   0.007697  -0.065421   0.006798
     2  H   -0.012963   0.000408  -0.289407   0.011347  -0.089447   0.013319
     3  H    0.046142  -0.088662   0.000934  -0.001732  -0.000167   0.000038
     4  O   -0.171203   0.050500  -0.001769   0.005846   0.000012   0.000001
     5  H    0.007372   0.013914   0.000099   0.000117  -0.000003   0.000000
     6  H    0.213356   0.001384  -0.040217   0.001022  -0.003359   0.001094
     7  O    8.566335   0.188144  -0.061492  -0.004026   0.002505   0.002342
     8  H    0.188144   0.473723  -0.004689   0.001331   0.000265  -0.000144
     9  C   -0.061492  -0.004689   5.861682   0.337520   0.445338   0.330490
    10  H   -0.004026   0.001331   0.337520   0.449189  -0.021479  -0.012273
    11  H    0.002505   0.000265   0.445338  -0.021479   0.524912  -0.022146
    12  H    0.002342  -0.000144   0.330490  -0.012273  -0.022146   0.506411
    13  H   -0.020003   0.000662   0.408759  -0.035542  -0.044674  -0.036285
             13
     1  H   -0.047950
     2  H   -0.075306
     3  H    0.000551
     4  O   -0.000020
     5  H   -0.000048
     6  H   -0.013375
     7  O   -0.020003
     8  H    0.000662
     9  C    0.408759
    10  H   -0.035542
    11  H   -0.044674
    12  H   -0.036285
    13  H    0.752408
 Mulliken atomic charges:
              1
     1  H   -0.028547
     2  H   -0.035956
     3  H    0.563850
     4  O   -0.857593
     5  H    0.231190
     6  H    0.460964
     7  O   -0.754849
     8  H    0.363055
     9  C   -0.797934
    10  H    0.260982
    11  H    0.273663
    12  H    0.210354
    13  H    0.110822
 Sum of Mulliken charges=   0.00000
 Atomic charges with hydrogens summed into heavy atoms:
              1
     1  H    0.000000
     2  H    0.000000
     3  H    0.000000
     4  O   -0.626403
     5  H    0.000000
     6  H    0.000000
     7  O    0.633020
     8  H    0.000000
     9  C   -0.006617
    10  H    0.000000
    11  H    0.000000
    12  H    0.000000
    13  H    0.000000
 Sum of Mulliken charges=   0.00000
 Electronic spatial extent (au):  <R**2>=   402.1859
 Charge=     0.0000 electrons
 Dipole moment (field-independent basis, Debye):
    X=     3.3952    Y=     0.3427    Z=    -3.8609  Tot=     5.1528
 Quadrupole moment (field-independent basis, Debye-Ang):
   XX=   -29.7291   YY=   -24.4638   ZZ=   -21.9070
   XY=    -0.2836   XZ=     5.2455   YZ=    -0.6119
 Traceless Quadrupole moment (field-independent basis, Debye-Ang):
   XX=    -4.3624   YY=     0.9028   ZZ=     3.4596
   XY=    -0.2836   XZ=     5.2455   YZ=    -0.6119
 Octapole moment (field-independent basis, Debye-Ang**2):
  XXX=    -4.5538  YYY=    -0.3020  ZZZ=    -2.5720  XYY=    -6.7239
  XXY=    -5.3240  XXZ=   -12.4337  XZZ=    -4.4122  YZZ=     0.8885
  YYZ=    -3.2344  XYZ=    -4.1683
 Hexadecapole moment (field-independent basis, Debye-Ang**3):
 XXXX=  -427.1104 YYYY=   -82.2074 ZZZZ=   -37.1832 XXXY=    -9.0101
 XXXZ=    21.0137 YYYX=    -5.1444 YYYZ=    -4.4412 ZZZX=     2.8233
 ZZZY=    -2.1806 XXYY=   -85.2690 XXZZ=   -69.8109 YYZZ=   -20.1982
 XXYZ=     1.3174 YYXZ=    -3.3092 ZZXY=    -0.3527
 N-N= 1.085521242389D+02 E-N=-6.704781126176D+02  KE= 1.925062091560D+02
 ***** Axes restored to original set *****
 -------------------------------------------------------------------
 Center     Atomic                   Forces (Hartrees/Bohr)
 Number     Number              X              Y              Z
 -------------------------------------------------------------------
    1          1          -0.055277409    0.068168034    0.045207395
    2          1          -0.073319006    0.063554763   -0.133340251
    3          1           0.264612914    0.010085316   -0.115406475
    4          8           0.129028254   -0.006719332    0.085603835
    5          1          -0.035268699   -0.000042438   -0.069313481
    6          1           0.101438431    0.038780927   -0.014669472
    7          8          -0.337707734    0.057999793    0.098276344
    8          1          -0.074156492    0.002607523    0.000685123
    9          6           0.051757687   -0.131459959    0.036156228
   10          1          -0.011308718   -0.007046495    0.008239157
   11          1           0.046836928   -0.049640455    0.041880465
   12          1          -0.000477025    0.000583405    0.000694367
   13          1          -0.006159130   -0.046871083    0.015986767
 -------------------------------------------------------------------
 Cartesian Forces:  Max     0.337707734 RMS     0.091350469
 ------------------------------------------------------------------------
           Internal Coordinate Forces (Hartree/Bohr or radian)
 Cent Atom N1     Length/X     N2     Alpha/Y      N3      Beta/Z       J
 ------------------------------------------------------------------------
   1  H        -0.055277(   1)      0.068168(  14)      0.045207(  27)
   2  H        -0.073319(   2)      0.063555(  15)     -0.133340(  28)
   3  H         0.264613(   3)      0.010085(  16)     -0.115406(  29)
   4  O         0.129028(   4)     -0.006719(  17)      0.085604(  30)
   5  H        -0.035269(   5)     -0.000042(  18)     -0.069313(  31)
   6  H         0.101438(   6)      0.038781(  19)     -0.014669(  32)
   7  O        -0.337708(   7)      0.058000(  20)      0.098276(  33)
   8  H        -0.074156(   8)      0.002608(  21)      0.000685(  34)
   9  C         0.051758(   9)     -0.131460(  22)      0.036156(  35)
  10  H        -0.011309(  10)     -0.007046(  23)      0.008239(  36)
  11  H         0.046837(  11)     -0.049640(  24)      0.041880(  37)
  12  H        -0.000477(  12)      0.000583(  25)      0.000694(  38)
  13  H        -0.006159(  13)     -0.046871(  26)      0.015987(  39)
 ------------------------------------------------------------------------
 Internal  Forces:  Max     0.337707734 RMS     0.091350469

 GradGradGradGradGradGradGradGradGradGradGradGradGradGradGradGradGradGrad
 Berny optimization.
 Search for a local minimum.
 Step number   1 out of a maximum of   2
 All quantities printed in internal units (Hartrees-Bohrs-Radians)
 Second derivative matrix not updated -- first step.
     Eigenvalues ---    0.00000   0.00000   0.00000   0.00000   0.00000
     Eigenvalues ---    0.00000   0.00000   0.00000   0.00000   0.00000
     Eigenvalues ---    0.00000   0.00000   0.00000   0.00438   0.04566
     Eigenvalues ---    0.10204   0.11313   0.11313   0.13649   0.13733
     Eigenvalues ---    0.13866   0.22676   0.34813   0.34827   0.46068
     Eigenvalues ---    0.53345   0.77684   0.83819   0.86294   0.90732
     Eigenvalues ---    1.01480   1.70651   4.55600
 Eigenvalue   1 out of range, new value =    0.000100 Eigenvector:
                           1
           X1           0.01398
           Y1           0.05817
           Z1          -0.17735
           X2          -0.04738
           Y2           0.07332
           Z2          -0.17735
           X3           0.03662
           Y3           0.12892
           Z3           0.04557
           X4           0.03662
           Y4          -0.02903
           Z4          -0.04026
           X5           0.11089
           Y5          -0.16088
           Z5          -0.08331
           X6           0.03662
           Y6           0.17936
           Z6           0.15596
           X7           0.03662
           Y7           0.15187
           Z7           0.09580
           X8           0.08867
           Y8           0.71516
           Z8           0.06563
           X9          -0.06924
           Y9          -0.20800
           Z9           0.00214
           X10         -0.06924
           Y10         -0.20800
           Z10          0.00214
           X11         -0.06924
           Y11         -0.18498
           Z11          0.00214
           X12         -0.06924
           Y12         -0.21950
           Z12         -0.01779
           X13         -0.06924
           Y13         -0.21950
           Z13          0.02207
 Eigenvalue   2 out of range, new value =    0.000100 Eigenvector:
                           1
           X1           0.07058
           Y1          -0.04171
           Z1           0.51160
           X2          -0.02162
           Y2           0.01407
           Z2           0.51160
           X3          -0.00869
           Y3           0.27659
           Z3           0.03120
           X4          -0.00869
           Y4          -0.25646
           Z4           0.07995
           X5          -0.05087
           Y5           0.06687
           Z5           0.10440
           X6          -0.00869
           Y6           0.04157
           Z6          -0.29701
           X7          -0.00869
           Y7           0.16966
           Z7          -0.11814
           X8          -0.16344
           Y8           0.23317
           Z8          -0.02843
           X9           0.03595
           Y9          -0.05350
           Z9          -0.11247
           X10          0.03595
           Y10         -0.05350
           Z10         -0.11247
           X11          0.03595
           Y11         -0.08322
           Z11         -0.11247
           X12          0.03595
           Y12         -0.03864
           Z12         -0.08673
           X13          0.03595
           Y13         -0.03864
           Z13         -0.13821
 Eigenvalue   3 out of range, new value =    0.000100 Eigenvector:
                           1
           X1          -0.00880
           Y1           0.04445
           Z1          -0.01972
           X2          -0.16710
           Y2           0.22416
           Z2          -0.01972
           X3           0.02049
           Y3           0.20428
           Z3           0.01731
           X4           0.02049
           Y4           0.11001
           Z4           0.00154
           X5           0.03413
           Y5          -0.21900
           Z5          -0.00636
           X6           0.02049
           Y6           0.26845
           Z6           0.02481
           X7           0.02049
           Y7           0.23348
           Z7           0.02072
           X8           0.02403
           Y8          -0.47097
           Z8           0.01867
           X9          -0.00607
           Y9          -0.15860
           Z9          -0.01209
           X10         -0.00607
           Y10         -0.15860
           Z10         -0.01209
           X11         -0.00607
           Y11         -0.49375
           Z11         -0.01209
           X12         -0.00607
           Y12          0.00897
           Z12          0.27816
           X13         -0.00607
           Y13          0.00897
           Z13         -0.30234
 Eigenvalue   4 out of range, new value =    0.000100 Eigenvector:
                           1
           X1           0.03403
           Y1           0.19960
           Z1          -0.02780
           X2           0.60992
           Y2           0.57363
           Z2          -0.02780
           X3          -0.13257
           Y3          -0.00581
           Z3           0.01577
           X4          -0.13257
           Y4          -0.12194
           Z4          -0.05409
           X5          -0.07212
           Y5           0.07240
           Z5          -0.08913
           X6          -0.13257
           Y6          -0.20181
           Z6           0.06345
           X7          -0.13257
           Y7          -0.09499
           Z7           0.03746
           X8          -0.11009
           Y8           0.07914
           Z8           0.02443
           X9           0.08579
           Y9          -0.01606
           Z9           0.01367
           X10          0.08579
           Y10         -0.01606
           Z10          0.01367
           X11          0.08579
           Y11         -0.12631
           Z11          0.01367
           X12          0.08579
           Y12          0.03906
           Z12          0.10915
           X13          0.08579
           Y13          0.03906
           Z13         -0.08181
 Eigenvalue   5 out of range, new value =    0.000100 Eigenvector:
                           1
           X1           0.70124
           Y1          -0.06638
           Z1           0.10814
           X2           0.26419
           Y2          -0.06013
           Z2           0.10814
           X3          -0.02417
           Y3           0.01304
           Z3          -0.06748
           X4          -0.02417
           Y4           0.25009
           Z4          -0.05228
           X5          -0.03732
           Y5          -0.46507
           Z5          -0.04465
           X6          -0.02417
           Y6          -0.00805
           Z6          -0.01392
           X7          -0.02417
           Y7           0.00344
           Z7          -0.04311
           X8           0.00108
           Y8          -0.08243
           Z8          -0.05775
           X9          -0.11537
           Y9          -0.00746
           Z9           0.03680
           X10         -0.11537
           Y10         -0.00746
           Z10          0.03680
           X11         -0.11537
           Y11          0.09117
           Z11          0.03680
           X12         -0.11537
           Y12         -0.05677
           Z12         -0.04861
           X13         -0.11537
           Y13         -0.05677
           Z13          0.12221
 Eigenvalue   6 out of range, new value =    0.000100 Eigenvector:
                           1
           X1           0.54067
           Y1           0.49372
           Z1          -0.03539
           X2          -0.50331
           Y2          -0.00360
           Z2          -0.03539
           X3          -0.05212
           Y3          -0.01733
           Z3           0.01295
           X4          -0.05212
           Y4          -0.11733
           Z4          -0.05283
           X5           0.00478
           Y5           0.26586
           Z5          -0.08582
           X6          -0.05212
           Y6          -0.20376
           Z6           0.06083
           X7          -0.05212
           Y7          -0.10215
           Z7           0.03473
           X8          -0.02954
           Y8           0.05376
           Z8           0.02165
           X9           0.05993
           Y9           0.00499
           Z9           0.01742
           X10          0.05993
           Y10          0.00499
           Z10          0.01742
           X11          0.05993
           Y11         -0.07954
           Z11          0.01742
           X12          0.05993
           Y12          0.04725
           Z12          0.09062
           X13          0.05993
           Y13          0.04725
           Z13         -0.05578
 Quadratic step=2.019D+03 exceeds max=3.000D-01 adjusted using Lamda=-1.107D+00.
 Angle between NR and scaled steps=  52.63 degrees.
 Angle between quadratic step and forces=  26.24 degrees.
 Linear search not attempted -- first point.
 TrRot=  0.001787 -0.005341  0.005272  1.493602 -0.000770 -1.491743
 Variable       Old X    -DE/DX   Delta X   Delta X   Delta X     New X
                                 (Linear)    (Quad)   (Total)
    X1        0.00000  -0.05528   0.00000  -0.05113  -0.04946  -0.04946
    Y1        0.00000   0.06817   0.00000   0.06653   0.06109   0.06109
    Z1        0.00000   0.04521   0.00000   0.01297   0.01829   0.01829
    X2        0.00000  -0.07332   0.00000  -0.06756  -0.06598  -0.06598
    Y2        0.00000   0.06355   0.00000   0.06302   0.05632   0.05632
    Z2        1.71587  -0.13334   0.00000  -0.10090  -0.09559   1.62028
    X3        5.66918   0.26461   0.00000   0.10510   0.10322   5.77240
    Y3        1.88973   0.01009   0.00000  -0.00843  -0.00512   1.88460
    Z3        2.74766  -0.11541   0.00000  -0.02966  -0.02259   2.72507
    X4        7.72898   0.12903   0.00000   0.10330   0.10143   7.83041
    Y4        1.88973  -0.00672   0.00000  -0.01308  -0.00598   1.88375
    Z4        2.74766   0.08560   0.00000   0.00942   0.01660   2.76427
    X5        8.76199  -0.03527   0.00000  -0.01375  -0.01574   8.74625
    Y5        1.88973  -0.00004   0.00000  -0.00535   0.00212   1.89185
    Z5        4.52970  -0.06931   0.00000  -0.03987  -0.03262   4.49708
    X6        1.88973   0.10144   0.00000   0.04318   0.04122   1.93094
    Y6        1.88973   0.03878   0.00000   0.03616   0.03231   1.92203
    Z6        2.74766  -0.01467   0.00000  -0.00413   0.00274   2.75040
    X7        3.94953  -0.33771   0.00000  -0.11458  -0.11660   3.83293
    Y7        1.88973   0.05800   0.00000   0.06624   0.06591   1.95563
    Z7        2.74766   0.09828   0.00000   0.01277   0.01978   2.76744
    X8        4.98254  -0.07416   0.00000  -0.06899  -0.07100   4.91154
    Y8        1.88973   0.00261   0.00000   0.00223   0.00255   1.89227
    Z8        4.52970   0.00069   0.00000  -0.00488   0.00215   4.53185
    X9        1.88973   0.05176   0.00000   0.02630   0.03158   1.92130
    Y9       -1.88973  -0.13146   0.00000  -0.07934  -0.08324  -1.97297
    Z9        2.74766   0.03616   0.00000   0.02207   0.02595   2.77361
   X10        3.94953  -0.01131   0.00000  -0.00454   0.00061   3.95014
   Y10       -1.88973  -0.00705   0.00000  -0.01035  -0.01046  -1.90019
   Z10        2.74766   0.00824   0.00000   0.00666   0.01071   2.75837
   X11        1.20215   0.04684   0.00000   0.03711   0.04244   1.24459
   Y11       -1.88973  -0.04964   0.00000  -0.04382  -0.04750  -1.93723
   Z11        0.80601   0.04188   0.00000   0.03095   0.03481   0.84082
   X12        1.20215  -0.00048   0.00000  -0.00830  -0.00008   1.20207
   Y12       -3.57125   0.00058   0.00000  -0.01031  -0.01629  -3.58753
   Z12        3.71849   0.00069   0.00000   0.00509   0.00769   3.72618
   X13        1.20215  -0.00616   0.00000  -0.00366  -0.00162   1.20053
   Y13       -0.20820  -0.04687   0.00000  -0.04572  -0.05169  -0.25990
   Z13        3.71849   0.01599   0.00000   0.00694   0.01209   3.73058
         Item               Value     Threshold  Converged?
 Maximum Force            0.337708     0.000450     NO 
 RMS     Force            0.091350     0.000300     NO 
 Maximum Displacement     0.116596     0.001800     NO 
 RMS     Displacement     0.047945     0.001200     NO 
 Predicted change in Energy=-1.271444D-01
 GradGradGradGradGradGradGradGradGradGradGradGradGradGradGradGradGradGrad

 1\1\GINC-OUTBACK\Force\RHF\3-21G\C1H10O2\HUGH\30-Oct-2009\0\\# HF/3-21
 G force\\Generated by ASE Gaussian driver\\0,1\H,0.,0.,0.\H,0.,0.,0.90
 8\H,3.,1.,1.454\O,4.09,1.,1.454\H,4.6366467035,1.,2.3970150484\H,1.,1.
 ,1.454\O,2.09,1.,1.454\H,2.6366467035,1.,2.3970150484\C,1.,-1.,1.454\H
 ,2.09,-1.,1.454\H,0.6361505234,-1.,0.4265207747\H,0.6361505234,-1.8898
 23111,1.9677396126\H,0.6361505234,-0.110176889,1.9677396126\\Version=A
 M64L-G03RevD.01\State=1-A\HF=-191.8265947\RMSD=9.709e-09\RMSF=9.135e-0
 2\Thermal=0.\Dipole=-1.519334,-0.2965243,1.3090227\PG=C01 [X(C1H10O2)]
 \\@


 THERE IS AN OLD, OLD RECIPE IN MAINE FOR STEWING COOT. PLACE THE
 BIRD IN A KETTLE OF WATER WITH A RED BUILDING BRICK FREE OF MORTAR AND
 BLEMISHES. PARBOIL THE COOT AND BRICK TOGETHER FOR THREE HOURS.
 POUR OFF THE WATER, REFILL THE KETTLE, AND AGAIN PARBOIL FOR THREE HOURS.
 ONCE AGAIN POUR OFF THE WATER, FOR THE LAST TIME ADD FRESH WATER,
 AND LET THE COOT AND BRICK SIMMER TOGETHER OVERNIGHT. IN THE MORNING,
 THROW AWAY THE COOT AND EAT THE BRICK.
 Job cpu time:  0 days  0 hours  0 minutes  5.8 seconds.
 File lengths (MBytes):  RWF=     13 Int=      0 D2E=      0 Chk=      6 Scr=      1
 Normal termination of Gaussian 03 at Fri Oct 30 18:08:08 2009.
