 Entering Gaussian System, Link 0=g03
 Input=gaussjob.com
 Output=gaussjob.log
 Initial command:
 /usr/local/g03/l1.exe /scratch/Gau-23430.inp -scrdir=/scratch/
 Entering Link 1 = /usr/local/g03/l1.exe PID=     23431.
  
 Copyright (c) 1988,1990,1992,1993,1995,1998,2003,2004, Gaussian, Inc.
                  All Rights Reserved.
  
 This is the Gaussian(R) 03 program.  It is based on the
 the Gaussian(R) 98 system (copyright 1998, Gaussian, Inc.),
 the Gaussian(R) 94 system (copyright 1995, Gaussian, Inc.),
 the Gaussian 92(TM) system (copyright 1992, Gaussian, Inc.),
 the Gaussian 90(TM) system (copyright 1990, Gaussian, Inc.),
 the Gaussian 88(TM) system (copyright 1988, Gaussian, Inc.),
 the Gaussian 86(TM) system (copyright 1986, Carnegie Mellon
 University), and the Gaussian 82(TM) system (copyright 1983,
 Carnegie Mellon University). Gaussian is a federally registered
 trademark of Gaussian, Inc.
  
 This software contains proprietary and confidential information,
 including trade secrets, belonging to Gaussian, Inc.
  
 This software is provided under written license and may be
 used, copied, transmitted, or stored only in accord with that
 written license.
  
 The following legend is applicable only to US Government
 contracts under FAR:
  
                    RESTRICTED RIGHTS LEGEND
  
 Use, reproduction and disclosure by the US Government is
 subject to restrictions as set forth in subparagraphs (a)
 and (c) of the Commercial Computer Software - Restricted
 Rights clause in FAR 52.227-19.
  
 Gaussian, Inc.
 340 Quinnipiac St., Bldg. 40, Wallingford CT 06492
  
  
 ---------------------------------------------------------------
 Warning -- This program may not be used in any manner that
 competes with the business of Gaussian, Inc. or will provide
 assistance to any competitor of Gaussian, Inc.  The licensee
 of this program is prohibited from giving any competitor of
 Gaussian, Inc. access to this program.  By using this program,
 the user acknowledges that Gaussian, Inc. is engaged in the
 business of creating and licensing software in the field of
 computational chemistry and represents and warrants to the
 licensee that it is not a competitor of Gaussian, Inc. and that
 it will not use this program in any manner prohibited above.
 ---------------------------------------------------------------
  

 Cite this work as:
 Gaussian 03, Revision D.01,
 M. J. Frisch, G. W. Trucks, H. B. Schlegel, G. E. Scuseria, 
 M. A. Robb, J. R. Cheeseman, J. A. Montgomery, Jr., T. Vreven, 
 K. N. Kudin, J. C. Burant, J. M. Millam, S. S. Iyengar, J. Tomasi, 
 V. Barone, B. Mennucci, M. Cossi, G. Scalmani, N. Rega, 
 G. A. Petersson, H. Nakatsuji, M. Hada, M. Ehara, K. Toyota, 
 R. Fukuda, J. Hasegawa, M. Ishida, T. Nakajima, Y. Honda, O. Kitao, 
 H. Nakai, M. Klene, X. Li, J. E. Knox, H. P. Hratchian, J. B. Cross, 
 V. Bakken, C. Adamo, J. Jaramillo, R. Gomperts, R. E. Stratmann, 
 O. Yazyev, A. J. Austin, R. Cammi, C. Pomelli, J. W. Ochterski, 
 P. Y. Ayala, K. Morokuma, G. A. Voth, P. Salvador, J. J. Dannenberg, 
 V. G. Zakrzewski, S. Dapprich, A. D. Daniels, M. C. Strain, 
 O. Farkas, D. K. Malick, A. D. Rabuck, K. Raghavachari, 
 J. B. Foresman, J. V. Ortiz, Q. Cui, A. G. Baboul, S. Clifford, 
 J. Cioslowski, B. B. Stefanov, G. Liu, A. Liashenko, P. Piskorz, 
 I. Komaromi, R. L. Martin, D. J. Fox, T. Keith, M. A. Al-Laham, 
 C. Y. Peng, A. Nanayakkara, M. Challacombe, P. M. W. Gill, 
 B. Johnson, W. Chen, M. W. Wong, C. Gonzalez, and J. A. Pople, 
 Gaussian, Inc., Wallingford CT, 2004.
 
 ******************************************
 Gaussian 03:  AM64L-G03RevD.01 13-Oct-2005
                 3-Nov-2009 
 ******************************************
 %chk=gaussjob.chk
 %nprocs=2
 Will use up to    2 processors via shared memory.
 ---------------------------
 # HF/3-21G guess=read force
 ---------------------------
 1/10=7,30=1,38=1/1,3;
 2/17=6,18=5,40=1/2;
 3/5=5,11=9,16=1,25=1,30=1/1,2,3;
 4/5=1/1;
 5/5=2,38=6/2;
 6/7=2,8=2,9=2,10=2,28=1/1;
 7/29=1/1,2,3,16;
 1/10=7,30=1/3;
 99//99;
 --------------------------------
 Generated by ASE Gaussian driver
 --------------------------------
 Symbolic Z-matrix:
 Charge =  0 Multiplicity = 1
 H                    -0.40765  -0.28247  -0.29358 
 O                     0.25188  -0.72947   0.45027 
 H                     1.14738  -0.19995   0.77551 
 H                     0.10688  -0.05246   2.95379 
 O                     0.20929  -0.78233   3.75684 
 H                     0.79512  -0.54072   4.6437 
 H                    -0.16216  -0.00518   5.95798 
 O                     0.62298  -0.37443   6.61776 
 H                     0.88257   0.17775   7.52098 
 H                    -0.15991   2.98644   0.06844 
 O                    -0.46046   2.49754   0.99512 
 H                    -1.22078   2.95122   1.63088 
 H                    -0.00979   2.94341   2.94973 
 O                     0.025     2.26967   3.80586 
 H                    -0.63604   2.43276   4.65705 
 H                     0.0832    3.00862   6.04078 
 O                     0.12667   2.92148   7.12642 
 H                     0.98267   3.31753   7.67278 
 H                     0.0681    5.99075   0.09228 
 O                    -0.94172   5.67791   0.35778 
 H                    -1.64602   6.39892   0.77276 
 H                    -0.03712   6.06376   2.92127 
 O                    -0.07664   6.12005   4.00909 
 H                    -0.36281   7.05114   4.49826 
 H                     0.08933   5.87994   6.02143 
 O                     0.61732   5.85414   6.97467 
 H                     0.87558   6.78375   7.48185 
 H                     3.36515   0.41602   0.24947 
 O                     2.65505   0.49506   1.07264 
 H                     2.87107   1.14526   1.92039 
 H                     2.97268  -0.13188   3.16375 
 O                     3.74744  -0.5141    3.8284 
 H                     4.44717   0.17291   4.3043 
 H                     3.08938  -0.48361   5.90368 
 O                     3.25618   0.4545    6.43304 
 H                     3.34747   1.38736   5.87669 
 H                     3.07873   2.92767  -0.10481 
 O                     2.11143   3.41205   0.02866 
 H                     1.68441   4.01106  -0.77567 
 H                     2.87326   3.02182   2.79283 
 O                     2.91649   2.68512   3.82863 
 H                     2.2893    3.15861   4.58397 
 H                     3.0766    3.57018   6.26205 
 O                     3.45212   3.24363   7.23181 
 H                     3.46627   3.9357    8.0738 
 H                     2.97321   6.16508   0.09348 
 O                     2.54494   6.00823   1.08347 
 H                     3.13489   6.22279   1.97455 
 

 GradGradGradGradGradGradGradGradGradGradGradGradGradGradGradGradGradGrad
 Berny optimization.
 Initialization pass.
 Trust Radius=3.00D-01 FncErr=1.00D-07 GrdErr=1.00D-07
 Number of steps in this run=   2 maximum allowed number of steps=   2.
 GradGradGradGradGradGradGradGradGradGradGradGradGradGradGradGradGradGrad

                          Input orientation:                          
 ---------------------------------------------------------------------
 Center     Atomic     Atomic              Coordinates (Angstroms)
 Number     Number      Type              X           Y           Z
 ---------------------------------------------------------------------
    1          1             0       -0.407647   -0.282468   -0.293583
    2          8             0        0.251876   -0.729468    0.450272
    3          1             0        1.147382   -0.199951    0.775514
    4          1             0        0.106882   -0.052457    2.953788
    5          8             0        0.209289   -0.782331    3.756843
    6          1             0        0.795124   -0.540719    4.643703
    7          1             0       -0.162165   -0.005178    5.957980
    8          8             0        0.622979   -0.374429    6.617755
    9          1             0        0.882569    0.177754    7.520976
   10          1             0       -0.159915    2.986443    0.068440
   11          8             0       -0.460464    2.497536    0.995123
   12          1             0       -1.220779    2.951225    1.630880
   13          1             0       -0.009794    2.943409    2.949733
   14          8             0        0.024998    2.269665    3.805862
   15          1             0       -0.636043    2.432763    4.657052
   16          1             0        0.083198    3.008623    6.040784
   17          8             0        0.126668    2.921481    7.126425
   18          1             0        0.982670    3.317531    7.672781
   19          1             0        0.068104    5.990745    0.092278
   20          8             0       -0.941720    5.677914    0.357781
   21          1             0       -1.646022    6.398923    0.772758
   22          1             0       -0.037115    6.063761    2.921266
   23          8             0       -0.076643    6.120048    4.009093
   24          1             0       -0.362809    7.051138    4.498256
   25          1             0        0.089333    5.879937    6.021430
   26          8             0        0.617317    5.854140    6.974670
   27          1             0        0.875580    6.783745    7.481853
   28          1             0        3.365145    0.416020    0.249466
   29          8             0        2.655050    0.495064    1.072640
   30          1             0        2.871074    1.145255    1.920393
   31          1             0        2.972675   -0.131884    3.163754
   32          8             0        3.747437   -0.514103    3.828400
   33          1             0        4.447172    0.172910    4.304301
   34          1             0        3.089379   -0.483612    5.903680
   35          8             0        3.256185    0.454499    6.433043
   36          1             0        3.347466    1.387365    5.876690
   37          1             0        3.078730    2.927674   -0.104813
   38          8             0        2.111434    3.412055    0.028658
   39          1             0        1.684414    4.011057   -0.775673
   40          1             0        2.873257    3.021820    2.792833
   41          8             0        2.916489    2.685124    3.828626
   42          1             0        2.289302    3.158613    4.583971
   43          1             0        3.076604    3.570182    6.262045
   44          8             0        3.452122    3.243629    7.231813
   45          1             0        3.466270    3.935699    8.073798
   46          1             0        2.973213    6.165082    0.093484
   47          8             0        2.544939    6.008228    1.083473
   48          1             0        3.134886    6.222792    1.974553
 ---------------------------------------------------------------------
                    Distance matrix (angstroms):
                    1          2          3          4          5
     1  H    0.000000
     2  O    1.090000   0.000000
     3  H    1.888886   1.090000   0.000000
     4  H    3.295916   2.597491   2.418527   0.000000
     5  O    4.127520   3.307267   3.179231   1.090000   0.000000
     6  H    5.088236   4.232683   3.899115   1.888886   1.090000
     7  H    6.262523   5.570535   5.348907   3.016586   2.363673
     8  O    6.988365   6.188830   5.868324   3.714118   2.919305
     9  H    7.933712   7.156512   6.761216   4.638307   3.942558
    10  H    3.298213   3.758106   3.515976   4.198967   5.286235
    11  O    3.064633   3.349305   3.147989   3.265075   4.339723
    12  H    3.849872   4.136429   4.033578   3.540463   4.528162
    13  H    4.591696   4.450371   3.993369   2.998140   3.818451
    14  O    4.848301   4.506247   4.067157   2.474871   3.057948
    15  H    5.650968   5.337143   5.017781   3.103122   3.444095
    16  H    7.155167   6.727228   6.257036   4.347449   4.427597
    17  O    8.099833   7.610264   7.149774   5.124021   5.007907
    18  H    8.851889   8.311251   7.744166   5.864531   5.722024
    19  H    6.303049   6.732250   6.321105   6.686556   7.702177
    20  O    6.019607   6.518265   6.252052   6.377772   7.390075
    21  H    6.878346   7.383764   7.165770   7.032060   7.994833
    22  H    7.123705   7.234451   6.726171   6.117999   6.901296
    23  O    7.721062   7.725866   7.203934   6.264756   6.912903
    24  H    8.760452   8.792147   8.289619   7.284714   7.889248
    25  H    8.837512   8.645719   8.099639   6.678625   7.037653
    26  O    9.567446   9.276056   8.681160   7.163514   7.386721
    27  H   10.584680  10.309244   9.686118   8.235771   8.459619
    28  H    3.875144   3.323388   2.361064   4.260177   4.867973
    29  O    3.442562   2.768043   1.686533   3.214289   3.849471
    30  H    4.205959   3.540627   2.468085   3.184835   3.764735
    31  H    4.837606   3.888809   3.006663   2.874572   2.900196
    32  O    5.857398   4.865909   4.022324   3.772492   3.549021
    33  H    6.702028   5.767871   4.845615   4.551131   4.378567
    34  H    7.118688   6.152360   5.490894   4.216995   3.604589
    35  O    7.695082   6.798617   6.073137   4.720204   4.239737
    36  H    7.413602   6.596186   5.777711   4.595414   4.364572
    37  H    4.742938   4.655524   3.779831   5.202701   6.075377
    38  O    4.483203   4.559378   3.812319   4.957565   5.925402
    39  H    4.800363   5.101734   4.519644   5.736692   6.759901
    40  H    5.586467   5.141146   4.174689   4.138830   4.743164
    41  O    6.070345   5.492984   4.557948   4.019152   4.399696
    42  H    6.550199   6.029572   5.204640   4.210870   4.532288
    43  H    8.364160   7.761622   6.930933   5.734747   5.782897
    44  O    9.163119   8.486245   7.671628   6.352661   6.228943
    45  H   10.139686   9.498118   8.703206   7.307898   7.176617
    46  H    7.290469   7.420767   6.656761   7.419905   8.326225
    47  O    7.084271   7.145322   6.370988   6.795153   7.662497
    48  H    7.746767   7.679134   6.829312   7.036083   7.797912
                    6          7          8          9         10
     6  H    0.000000
     7  H    1.711879   0.000000
     8  O    1.988509   1.090000   0.000000
     9  H    2.966909   1.888886   1.090000   0.000000
    10  H    5.855425   6.605791   7.402831   8.032172   0.000000
    11  O    4.911174   5.566193   6.405937   7.054919   1.090000
    12  H    5.033353   5.346473   6.271231   6.841743   1.888886
    13  H    3.956840   4.215084   4.986265   5.416773   2.885521
    14  O    3.032051   3.137125   3.905836   4.348975   3.810025
    15  H    3.300002   2.803663   3.648262   3.948836   4.646356
    16  H    3.880271   3.024906   3.474089   3.292990   5.977331
    17  O    4.312490   3.164493   3.371659   2.873168   7.064099
    18  H    4.908827   3.910446   3.856556   3.145038   7.696825
    19  H    7.994001   8.391101   9.132643   9.467828   3.013037
    20  O    7.749656   8.016700   8.846831   9.213640   2.817615
    21  H    8.312764   8.372626   9.229878   9.520250   3.788086
    22  H    6.875942   6.787436   7.453190   7.526502   4.198044
    23  O    6.747483   6.428364   7.033691   6.968807   5.035391
    24  H    7.681033   7.208512   7.784799   7.611256   6.015495
    25  H    6.604627   5.890828   6.305352   5.949181   6.623633
    26  O    6.808763   5.997738   6.238789   5.708780   7.518230
    27  H    7.855530   7.034812   7.214563   6.606111   8.393476
    28  H    5.179737   6.723575   6.978495   7.687315   4.366451
    29  O    4.157482   5.661579   5.969391   6.695028   3.890940
    30  H    3.816869   5.179395   5.424811   6.021356   4.000824
    31  H    2.664418   4.201306   4.184498   4.842499   5.396115
    32  O    3.062936   4.480971   4.190734   4.724537   6.454341
    33  H    3.736565   4.900240   4.502900   4.801397   6.861759
    34  H    2.618093   3.287002   2.570011   2.814793   7.526568
    35  O    3.201408   3.481681   2.766769   2.625687   7.654322
    36  H    3.428150   3.776677   3.328051   3.200398   6.970979
    37  H    6.308170   7.474120   7.882101   8.398680   3.243808
    38  O    6.217373   7.211351   7.743975   8.252613   2.311224
    39  H    7.132962   8.054941   8.661519   9.174506   2.272424
    40  H    4.520624   5.328664   5.588227   5.865738   4.077217
    41  O    3.945960   4.609770   4.732895   4.904812   4.867653
    42  H    3.990137   4.231686   4.404009   4.414795   5.139876
    43  H    4.972292   4.833764   4.659051   4.231697   7.012599
    44  O    5.298985   5.023989   4.633730   4.010711   8.026634
    45  H    6.240103   5.759578   5.364845   4.593830   8.839460
    46  H    8.391444   9.071660   9.531784   9.766602   4.463280
    47  O    7.656749   8.200627   8.663747   8.843039   4.180635
    48  H    7.638320   8.094804   8.449398   8.507539   4.996292
                   11         12         13         14         15
    11  O    0.000000
    12  H    1.090000   0.000000
    13  H    2.054849   1.790508   0.000000
    14  O    2.861443   2.597505   1.090000   0.000000
    15  H    3.666709   3.125450   1.888886   1.090000   0.000000
    16  H    5.100536   4.599011   3.093137   2.354638   1.662418
    17  O    6.173922   5.658402   4.178978   3.385459   2.630280
    18  H    6.880854   6.441579   4.840675   4.119250   3.535204
    19  H    3.646508   3.642416   4.178201   5.257281   5.830285
    20  O    3.279119   3.022167   3.881265   4.943680   5.395200
    21  H    4.083603   3.578244   4.399663   5.389137   5.642538
    22  H    4.075195   3.571280   3.120601   3.896349   4.068884
    23  O    4.727995   4.123880   3.349291   3.857082   3.785347
    24  H    5.746023   5.076145   4.404087   4.846884   4.629176
    25  H    6.083312   5.437893   4.250688   4.236383   3.777659
    26  O    6.941426   6.353079   5.006570   4.820855   4.318343
    27  H    7.888870   7.301837   6.006012   5.883308   5.403291
    28  H    4.418597   5.419065   5.006930   5.219247   6.285187
    29  O    3.704366   4.622381   4.076672   4.187706   5.237745
    30  H    3.712672   4.482031   3.548562   3.594362   4.631074
    31  H    4.837691   5.425894   4.289330   3.855975   4.672280
    32  O    5.899479   6.443660   5.181045   4.648271   5.346548
    33  H    6.359201   6.855063   5.419877   4.919396   5.574087
    34  H    6.751486   6.973693   5.484082   4.622965   4.892657
    35  O    6.896264   7.024074   5.384677   4.542849   4.713503
    36  H    6.289874   6.429730   4.718003   4.013176   4.295197
    37  H    3.731054   4.636697   4.343901   5.005161   6.059690
    38  O    2.895696   3.726006   3.640317   4.463803   5.470802
    39  H    3.166538   3.918531   4.229522   5.174609   6.114740
    40  H    3.823654   4.256318   2.888381   3.115212   4.017149
    41  O    4.412226   4.692321   3.066316   2.921274   3.656564
    42  H    4.569252   4.591778   2.828938   2.553968   3.014937
    43  H    6.434430   6.348094   4.570570   4.127527   4.201603
    44  O    7.400087   7.300134   5.514635   4.942765   4.898978
    45  H    8.221630   8.028002   6.270861   5.730035   5.546345
    46  H    5.104310   5.502911   5.237906   6.135797   6.912532
    47  O    4.622251   4.881142   4.404849   5.266722   5.972694
    48  H    5.269095   5.458304   4.646971   5.352786   5.981641
                   16         17         18         19         20
    16  H    0.000000
    17  O    1.090000   0.000000
    18  H    1.888886   1.090000   0.000000
    19  H    6.654171   7.674831   8.089903   0.000000
    20  O    6.361768   7.386063   7.923630   1.090000   0.000000
    21  H    6.498956   7.456817   8.000957   1.888886   1.090000
    22  H    4.368036   5.252058   5.581992   2.831885   2.745659
    23  O    3.719447   4.471009   4.732743   3.921621   3.778349
    24  H    4.349741   4.919444   5.082100   4.552226   4.400502
    25  H    2.871386   3.158302   3.176623   5.930225   5.760278
    26  O    3.042104   2.977290   2.656168   6.905622   6.800359
    27  H    4.117779   3.950226   3.473120   7.475740   7.434907
    28  H    7.143678   8.003601   8.318688   6.478638   6.800614
    29  O    6.133095   6.994892   7.370552   6.152715   6.348993
    30  H    5.312439   6.147317   6.432326   5.888754   6.125697
    31  H    5.146762   5.755480   6.015805   7.440234   7.546505
    32  O    5.543545   5.982488   6.091356   8.355186   8.507318
    33  H    5.486430   5.846860   5.765247   8.412169   8.655649
    34  H    4.609949   4.676261   4.692188   9.209658   9.217981
    35  O    4.092098   4.044830   3.860411   9.001066   9.045181
    36  H    3.648404   3.780064   3.541715   8.087320   8.201482
    37  H    6.837260   7.810602   8.064517   4.299432   4.893039
    38  O    6.357842   7.386355   7.727591   3.290728   3.816306
    39  H    7.073391   8.127540   8.505869   2.699066   3.310545
    40  H    4.281797   5.131650   5.241723   4.896570   5.247701
    41  O    3.609132   4.326019   4.349382   5.744625   5.990771
    42  H    2.647961   3.346235   3.357573   5.755866   5.886176
    43  H    3.053651   3.141669   2.537433   7.278477   7.446462
    44  O    3.580982   3.342683   2.509603   8.364878   8.513748
    45  H    4.054355   3.616503   2.590602   8.914898   9.055529
    46  H    7.327059   8.251426   8.337659   2.910336   3.953972
    47  O    6.295453   7.203701   7.286942   2.667861   3.576664
    48  H    6.014808   6.818344   6.748510   3.605822   4.419226
                   21         22         23         24         25
    21  H    0.000000
    22  H    2.704996   0.000000
    23  O    3.607574   1.090000   0.000000
    24  H    3.993915   1.888886   1.090000   0.000000
    25  H    5.552420   3.108183   2.033396   1.973880   0.000000
    26  O    6.624440   4.111242   3.057276   2.919945   1.090000
    27  H    7.177641   4.706416   3.661595   3.241444   1.888886
    28  H    7.821813   7.114132   7.649617   8.716344   8.596564
    29  O    7.310588   6.455660   6.908353   7.989019   7.750502
    30  H    7.022980   5.800949   6.148192   7.209912   6.853743
    31  H    8.348693   6.892290   7.007110   8.031324   7.254100
    32  O    9.285272   7.642906   7.659517   8.635722   7.686017
    33  H    9.400109   7.531517   7.478001   8.395449   7.383052
    34  H    9.804064   7.844607   7.564488   8.406264   7.036256
    35  O    9.560682   7.392038   7.005835   7.768923   6.295535
    36  H    8.723576   6.485261   6.132759   6.909743   5.551539
    37  H    5.928151   5.357302   6.088666   7.073570   7.428540
    38  O    4.857318   4.473811   5.288173   6.272329   6.789157
    39  H    4.380793   4.565590   5.517532   6.422425   7.227559
    40  H    5.992446   4.211908   4.447495   5.442058   5.132534
    41  O    6.629263   4.578456   4.559617   5.501298   4.796669
    42  H    6.364883   4.076358   3.833834   4.710923   3.783089
    43  H    7.774140   5.203267   4.639027   5.201689   3.783735
    44  O    8.812851   6.221635   5.577803   6.043439   4.441115
    45  H    9.247064   6.584143   5.817683   6.095269   4.404087
    46  H    4.674765   4.131427   4.963431   5.596084   6.598380
    47  O    4.220585   3.169790   3.929943   4.604716   5.516329
    48  H    4.932790   3.314083   3.803134   4.391936   5.076432
                   26         27         28         29         30
    26  O    0.000000
    27  H    1.090000   0.000000
    28  H    9.074805   9.952552   0.000000
    29  O    8.228366   9.153799   1.090000   0.000000
    30  H    7.266274   8.167276   1.888886   1.090000   0.000000
    31  H    7.476850   8.418415   2.991205   2.206062   1.785316
    32  O    7.762164   8.651813   3.717532   3.131443   2.676185
    33  H    7.353573   8.158201   4.203758   3.709329   3.018701
    34  H    6.886596   7.759253   5.731974   4.948272   4.308995
    35  O    6.034328   6.842999   6.184657   5.394157   4.581426
    36  H    5.348959   6.148796   5.710471   4.935032   3.992224
    37  H    8.046232   8.790942   2.552636   2.735597   2.705845
    38  O    7.512872   8.273194   3.255268   3.145513   3.048622
    39  H    8.037629   8.748071   4.098788   4.089084   4.109715
    40  H    5.531642   6.334801   3.674352   3.064502   2.069457
    41  O    5.022594   5.857480   4.261515   3.529896   2.452470
    42  H    3.972008   4.851589   5.240915   4.422409   3.389205
    43  H    3.431092   4.081596   6.795815   6.046816   4.977193
    44  O    3.862255   4.385603   7.533665   6.791564   5.740380
    45  H    3.606249   3.895310   8.580125   7.842975   6.782715
    46  H    7.279949   7.705245   5.764517   5.762731   5.342910
    47  O    6.200458   6.657887   5.713239   5.514274   4.945230
    48  H    5.610279   5.979087   6.061976   5.818123   5.084675
                   31         32         33         34         35
    31  H    0.000000
    32  O    1.090000   0.000000
    33  H    1.888886   1.090000   0.000000
    34  H    2.764874   2.177329   2.198326   0.000000
    35  O    3.333538   2.822001   2.455461   1.090000   0.000000
    36  H    3.131870   2.823305   2.270828   1.888886   1.090000
    37  H    4.478356   5.269076   5.376025   6.909340   6.992257
    38  O    4.809373   5.703442   5.850543   7.116774   7.146589
    39  H    5.860262   6.777214   6.940486   8.172499   8.190554
    40  H    3.176998   3.786732   3.588598   4.691709   4.470895
    41  O    2.894952   3.305379   2.980013   3.791653   3.445878
    42  H    3.648477   4.023168   3.694460   3.955699   3.415577
    43  H    4.828613   4.801461   4.153634   4.069623   3.125535
    44  O    5.307830   5.078482   4.357724   3.973391   2.907864
    45  H    6.395107   6.156557   5.415704   4.937789   3.854214
    46  H    7.005593   7.691588   7.470586   8.830459   8.537028
    47  O    6.497038   7.177843   6.931317   8.103999   7.743881
    48  H    6.467026   7.014109   6.614446   7.772771   7.291506
                   36         37         38         39         40
    36  H    0.000000
    37  H    6.182488   0.000000
    38  O    6.310834   1.090000   0.000000
    39  H    7.341897   1.888886   1.090000   0.000000
    40  H    3.522286   2.906447   2.893668   3.889238   0.000000
    41  O    2.462619   3.944248   3.951746   4.947290   1.090000
    42  H    2.434780   4.760381   4.565823   5.460617   1.888886
    43  H    2.233060   6.399196   6.309649   7.187631   3.518165
    44  O    2.300658   7.352913   7.328796   8.236114   4.482056
    45  H    3.366809   8.249605   8.175210   9.027393   5.392164
    46  H    7.510800   3.245191   2.885485   2.656362   4.144463
    47  O    6.706069   3.344663   2.835608   2.861052   3.456637
    48  H    6.217172   3.896758   3.568502   3.815676   3.314251
                   41         42         43         44         45
    41  O    0.000000
    42  H    1.090000   0.000000
    43  H    2.594320   1.898728   0.000000
    44  O    3.490059   2.893172   1.090000   0.000000
    45  H    4.459561   3.764042   1.888886   1.090000   0.000000
    46  H    5.105351   5.447115   6.692932   7.727870   8.300522
    47  O    4.326307   4.520967   5.748422   6.802064   7.349073
    48  H    4.000047   4.112574   5.042056   6.051019   6.522377
                   46         47         48
    46  H    0.000000
    47  O    1.090000   0.000000
    48  H    1.888886   1.090000   0.000000
 Stoichiometry    H32O16
 Framework group  C1[X(H32O16)]
 Deg. of freedom   138
 Full point group                 C1
 Largest Abelian subgroup         C1      NOp   1
 Largest concise Abelian subgroup C1      NOp   1
                         Standard orientation:                         
 ---------------------------------------------------------------------
 Center     Atomic     Atomic              Coordinates (Angstroms)
 Number     Number      Type              X           Y           Z
 ---------------------------------------------------------------------
    1          1             0        2.547839   -4.008165   -1.808242
    2          8             0        1.575481   -4.150375   -1.336653
    3          1             0        1.345545   -3.649528   -0.396237
    4          1             0       -0.324652   -2.402684   -1.623060
    5          8             0       -1.365604   -2.697172   -1.756456
    6          1             0       -2.157297   -2.157382   -1.236889
    7          1             0       -2.913026   -0.968976   -2.210077
    8          8             0       -3.801364   -1.096487   -1.591452
    9          1             0       -4.414094   -0.233665   -1.330303
   10          1             0        3.573987   -0.989699   -0.963197
   11          8             0        2.601765   -0.964391   -1.455380
   12          1             0        2.374801   -0.179935   -2.177333
   13          1             0        0.977398    0.255503   -1.146034
   14          8             0       -0.073948    0.043148   -1.340139
   15          1             0       -0.634005    0.655791   -2.046612
   16          1             0       -1.748016    1.698341   -1.386533
   17          8             0       -2.754155    2.106557   -1.482152
   18          1             0       -3.229267    2.594512   -0.631113
   19          1             0        4.790387    1.644782   -0.151857
   20          8             0        4.611220    1.616771   -1.226667
   21          1             0        4.683083    2.530360   -1.816828
   22          1             0        2.337364    3.001228   -0.554730
   23          8             0        1.405952    3.547611   -0.703181
   24          1             0        1.423365    4.627137   -0.852916
   25          1             0       -0.508502    4.224048   -0.812718
   26          8             0       -1.462059    4.565076   -0.409571
   27          1             0       -1.563192    5.582316   -0.031292
   28          1             0        1.658257   -3.624973    1.943898
   29          8             0        1.096366   -3.092979    1.176200
   30          1             0        0.582651   -2.163158    1.420392
   31          1             0       -1.081054   -2.741748    1.129403
   32          8             0       -1.977283   -2.877191    1.734819
   33          1             0       -2.236786   -2.144333    2.498807
   34          1             0       -3.677807   -1.828758    0.868928
   35          8             0       -3.777819   -0.782372    1.157327
   36          1             0       -2.904989   -0.221740    1.491931
   37          1             0        3.095733   -1.531064    2.199157
   38          8             0        3.365168   -0.920248    1.337526
   39          1             0        4.412279   -0.700678    1.129085
   40          1             0        0.609723   -0.112201    1.695154
   41          8             0       -0.458594    0.053171    1.555684
   42          1             0       -0.807897    0.892258    0.954002
   43          1             0       -2.265176    1.914141    1.615260
   44          8             0       -3.332966    2.016441    1.808803
   45          1             0       -3.785921    3.006262    1.865248
   46          1             0        4.319523    1.430434    2.712125
   47          8             0        3.456688    1.793757    2.153904
   48          1             0        2.648964    2.311051    2.671678
 ---------------------------------------------------------------------
 Rotational constants (GHZ):      0.2183882      0.1904524      0.1353170
 Standard basis: 3-21G (6D, 7F)
 There are   208 symmetry adapted basis functions of A   symmetry.
 Integral buffers will be    131072 words long.
 Raffenetti 1 integral format.
 Two-electron integral symmetry is turned on.
   208 basis functions,   336 primitive gaussians,   208 cartesian basis functions
    80 alpha electrons       80 beta electrons
       nuclear repulsion energy      1453.8319796610 Hartrees.
 NAtoms=   48 NActive=   48 NUniq=   48 SFac= 7.50D-01 NAtFMM=   80 NAOKFM=F Big=F
 One-electron integrals computed using PRISM.
 NBasis=   208 RedAO= T  NBF=   208
 NBsUse=   208 1.00D-06 NBFU=   208
 Initial guess read from the checkpoint file:
 gaussjob.chk
 Initial guess orbital symmetries:
       Occupied  (A) (A) (A) (A) (A) (A) (A) (A) (A) (A) (A) (A)
                 (A) (A) (A) (A) (A) (A) (A) (A) (A) (A) (A) (A)
                 (A) (A) (A) (A) (A) (A) (A) (A) (A) (A) (A) (A)
                 (A) (A) (A) (A) (A) (A) (A) (A) (A) (A) (A) (A)
                 (A) (A) (A) (A) (A) (A) (A) (A) (A) (A) (A) (A)
                 (A) (A) (A) (A) (A) (A) (A) (A) (A) (A) (A) (A)
                 (A) (A) (A) (A) (A) (A) (A) (A)
       Virtual   (A) (A) (A) (A) (A) (A) (A) (A) (A) (A) (A) (A)
                 (A) (A) (A) (A) (A) (A) (A) (A) (A) (A) (A) (A)
                 (A) (A) (A) (A) (A) (A) (A) (A) (A) (A) (A) (A)
                 (A) (A) (A) (A) (A) (A) (A) (A) (A) (A) (A) (A)
                 (A) (A) (A) (A) (A) (A) (A) (A) (A) (A) (A) (A)
                 (A) (A) (A) (A) (A) (A) (A) (A) (A) (A) (A) (A)
                 (A) (A) (A) (A) (A) (A) (A) (A) (A) (A) (A) (A)
                 (A) (A) (A) (A) (A) (A) (A) (A) (A) (A) (A) (A)
                 (A) (A) (A) (A) (A) (A) (A) (A) (A) (A) (A) (A)
                 (A) (A) (A) (A) (A) (A) (A) (A) (A) (A) (A) (A)
                 (A) (A) (A) (A) (A) (A) (A) (A)
 Requested convergence on RMS density matrix=1.00D-08 within 128 cycles.
 Requested convergence on MAX density matrix=1.00D-06.
 Requested convergence on             energy=1.00D-06.
 No special actions if energy rises.
 SCF Done:  E(RHF) =  -1208.99681882     A.U. after   10 cycles
             Convg  =    0.4872D-08             -V/T =  2.0074
             S**2   =   0.0000

 **********************************************************************

            Population analysis using the SCF density.

 **********************************************************************

 Orbital symmetries:
       Occupied  (A) (A) (A) (A) (A) (A) (A) (A) (A) (A) (A) (A)
                 (A) (A) (A) (A) (A) (A) (A) (A) (A) (A) (A) (A)
                 (A) (A) (A) (A) (A) (A) (A) (A) (A) (A) (A) (A)
                 (A) (A) (A) (A) (A) (A) (A) (A) (A) (A) (A) (A)
                 (A) (A) (A) (A) (A) (A) (A) (A) (A) (A) (A) (A)
                 (A) (A) (A) (A) (A) (A) (A) (A) (A) (A) (A) (A)
                 (A) (A) (A) (A) (A) (A) (A) (A)
       Virtual   (A) (A) (A) (A) (A) (A) (A) (A) (A) (A) (A) (A)
                 (A) (A) (A) (A) (A) (A) (A) (A) (A) (A) (A) (A)
                 (A) (A) (A) (A) (A) (A) (A) (A) (A) (A) (A) (A)
                 (A) (A) (A) (A) (A) (A) (A) (A) (A) (A) (A) (A)
                 (A) (A) (A) (A) (A) (A) (A) (A) (A) (A) (A) (A)
                 (A) (A) (A) (A) (A) (A) (A) (A) (A) (A) (A) (A)
                 (A) (A) (A) (A) (A) (A) (A) (A) (A) (A) (A) (A)
                 (A) (A) (A) (A) (A) (A) (A) (A) (A) (A) (A) (A)
                 (A) (A) (A) (A) (A) (A) (A) (A) (A) (A) (A) (A)
                 (A) (A) (A) (A) (A) (A) (A) (A) (A) (A) (A) (A)
                 (A) (A) (A) (A) (A) (A) (A) (A)
 The electronic state is 1-A.
 Alpha  occ. eigenvalues --  -20.49808 -20.49427 -20.49241 -20.48823 -20.48797
 Alpha  occ. eigenvalues --  -20.47045 -20.45314 -20.45088 -20.44729 -20.44389
 Alpha  occ. eigenvalues --  -20.41603 -20.40434 -20.38581 -20.35619 -20.34653
 Alpha  occ. eigenvalues --  -20.34445  -1.31820  -1.31424  -1.30983  -1.30703
 Alpha  occ. eigenvalues --   -1.30375  -1.28902  -1.27368  -1.27018  -1.26934
 Alpha  occ. eigenvalues --   -1.25847  -1.23604  -1.22694  -1.20777  -1.17884
 Alpha  occ. eigenvalues --   -1.17506  -1.16807  -0.70515  -0.69808  -0.69515
 Alpha  occ. eigenvalues --   -0.68832  -0.68374  -0.67454  -0.67140  -0.64672
 Alpha  occ. eigenvalues --   -0.64411  -0.63536  -0.60882  -0.60553  -0.60321
 Alpha  occ. eigenvalues --   -0.59985  -0.56651  -0.55466  -0.54984  -0.54073
 Alpha  occ. eigenvalues --   -0.53735  -0.53535  -0.52947  -0.52622  -0.52518
 Alpha  occ. eigenvalues --   -0.51414  -0.51320  -0.51034  -0.50770  -0.50400
 Alpha  occ. eigenvalues --   -0.49705  -0.49435  -0.49240  -0.48916  -0.47970
 Alpha  occ. eigenvalues --   -0.47628  -0.47029  -0.46215  -0.45814  -0.45571
 Alpha  occ. eigenvalues --   -0.44843  -0.44440  -0.43316  -0.42255  -0.40172
 Alpha  occ. eigenvalues --   -0.39869  -0.39480  -0.38023  -0.37646  -0.37343
 Alpha virt. eigenvalues --    0.09684   0.12838   0.13791   0.16500   0.17507
 Alpha virt. eigenvalues --    0.18587   0.19825   0.21940   0.23593   0.23935
 Alpha virt. eigenvalues --    0.25445   0.26803   0.27842   0.28176   0.28611
 Alpha virt. eigenvalues --    0.28890   0.30439   0.31362   0.31639   0.33083
 Alpha virt. eigenvalues --    0.34875   0.35164   0.36134   0.37142   0.38293
 Alpha virt. eigenvalues --    0.39303   0.40579   0.42436   0.44539   0.46148
 Alpha virt. eigenvalues --    0.48745   0.52347   1.01182   1.03204   1.05246
 Alpha virt. eigenvalues --    1.06604   1.07316   1.09018   1.10318   1.12349
 Alpha virt. eigenvalues --    1.12816   1.13603   1.13999   1.14390   1.16326
 Alpha virt. eigenvalues --    1.17468   1.18255   1.19036   1.20543   1.20752
 Alpha virt. eigenvalues --    1.21384   1.22118   1.23950   1.25753   1.26738
 Alpha virt. eigenvalues --    1.27610   1.28968   1.30444   1.31800   1.33226
 Alpha virt. eigenvalues --    1.34336   1.36975   1.37937   1.43377   1.68428
 Alpha virt. eigenvalues --    1.72909   1.75860   1.76311   1.77231   1.77890
 Alpha virt. eigenvalues --    1.79131   1.80008   1.80197   1.81587   1.82350
 Alpha virt. eigenvalues --    1.82576   1.83455   1.84435   1.85969   1.86418
 Alpha virt. eigenvalues --    1.87140   1.87197   1.87619   1.90189   1.90956
 Alpha virt. eigenvalues --    1.90965   1.91723   1.92383   1.93376   1.93787
 Alpha virt. eigenvalues --    1.94117   1.95964   1.97823   1.99541   2.01953
 Alpha virt. eigenvalues --    2.02381   2.03292   2.04659   2.05339   2.07755
 Alpha virt. eigenvalues --    2.08519   2.09419   2.11449   2.12553   2.15480
 Alpha virt. eigenvalues --    2.15887   2.16917   2.18371   2.19724   2.24135
 Alpha virt. eigenvalues --    2.25007   2.26141   2.94204   2.94700   2.95642
 Alpha virt. eigenvalues --    2.98355   2.98464   2.98963   3.00245   3.03473
 Alpha virt. eigenvalues --    3.05700   3.07921   3.09394   3.09911   3.15673
 Alpha virt. eigenvalues --    3.18627   3.22893   3.33600
          Condensed to atoms (all electrons):
              1          2          3          4          5          6
     1  H    0.478355   0.239571  -0.022256  -0.000219   0.000013   0.000000
     2  O    0.239571   8.307248   0.227214   0.008149  -0.000398  -0.000003
     3  H   -0.022256   0.227214   0.343325  -0.000083   0.000563   0.000009
     4  H   -0.000219   0.008149  -0.000083   0.402007   0.237617  -0.021582
     5  O    0.000013  -0.000398   0.000563   0.237617   8.292475   0.227929
     6  H    0.000000  -0.000003   0.000009  -0.021582   0.227929   0.410964
     7  H    0.000000   0.000000   0.000000   0.000269   0.011817  -0.014950
     8  O    0.000000   0.000000   0.000000   0.000057  -0.003906   0.025547
     9  H    0.000000   0.000000   0.000000  -0.000004   0.000098  -0.000696
    10  H    0.000018   0.000063  -0.000035  -0.000012   0.000000   0.000000
    11  O    0.001208  -0.000104   0.000830   0.000450  -0.000001   0.000000
    12  H   -0.000025   0.000018  -0.000035  -0.000018   0.000000   0.000000
    13  H   -0.000001  -0.000001   0.000022  -0.000396   0.000075  -0.000008
    14  O    0.000000   0.000000  -0.000018   0.009159  -0.000949   0.000737
    15  H    0.000000   0.000000   0.000000  -0.000273   0.000331  -0.000074
    16  H    0.000000   0.000000   0.000000  -0.000008  -0.000003   0.000008
    17  O    0.000000   0.000000   0.000000   0.000000   0.000000  -0.000006
    18  H    0.000000   0.000000   0.000000   0.000000   0.000000   0.000000
    19  H    0.000000   0.000000   0.000000   0.000000   0.000000   0.000000
    20  O    0.000000   0.000000   0.000000   0.000000   0.000000   0.000000
    21  H    0.000000   0.000000   0.000000   0.000000   0.000000   0.000000
    22  H    0.000000   0.000000   0.000000   0.000000   0.000000   0.000000
    23  O    0.000000   0.000000   0.000000   0.000000   0.000000   0.000000
    24  H    0.000000   0.000000   0.000000   0.000000   0.000000   0.000000
    25  H    0.000000   0.000000   0.000000   0.000000   0.000000   0.000000
    26  O    0.000000   0.000000   0.000000   0.000000   0.000000   0.000000
    27  H    0.000000   0.000000   0.000000   0.000000   0.000000   0.000000
    28  H   -0.000015   0.000785  -0.003174  -0.000007   0.000000   0.000000
    29  O    0.000316  -0.009253   0.044155   0.000093  -0.000012  -0.000011
    30  H   -0.000011   0.000426  -0.002338   0.000061  -0.000070  -0.000012
    31  H    0.000001  -0.000030   0.000260   0.000389   0.003431   0.000985
    32  O    0.000000   0.000000  -0.000008  -0.000020  -0.000144   0.001006
    33  H    0.000000   0.000000  -0.000001   0.000000   0.000001  -0.000058
    34  H    0.000000   0.000000   0.000000   0.000003  -0.000081   0.001478
    35  O    0.000000   0.000000   0.000000   0.000000  -0.000002   0.000250
    36  H    0.000000   0.000000   0.000000   0.000000  -0.000002   0.000194
    37  H    0.000000   0.000001  -0.000009   0.000000   0.000000   0.000000
    38  O    0.000000   0.000000   0.000023   0.000000   0.000000   0.000000
    39  H    0.000000   0.000000  -0.000001   0.000000   0.000000   0.000000
    40  H    0.000000   0.000000   0.000004   0.000000   0.000000   0.000001
    41  O    0.000000   0.000000  -0.000002   0.000003   0.000000   0.000010
    42  H    0.000000   0.000000   0.000000  -0.000002   0.000001   0.000010
    43  H    0.000000   0.000000   0.000000   0.000000   0.000000   0.000000
    44  O    0.000000   0.000000   0.000000   0.000000   0.000000   0.000000
    45  H    0.000000   0.000000   0.000000   0.000000   0.000000   0.000000
    46  H    0.000000   0.000000   0.000000   0.000000   0.000000   0.000000
    47  O    0.000000   0.000000   0.000000   0.000000   0.000000   0.000000
    48  H    0.000000   0.000000   0.000000   0.000000   0.000000   0.000000
              7          8          9         10         11         12
     1  H    0.000000   0.000000   0.000000   0.000018   0.001208  -0.000025
     2  O    0.000000   0.000000   0.000000   0.000063  -0.000104   0.000018
     3  H    0.000000   0.000000   0.000000  -0.000035   0.000830  -0.000035
     4  H    0.000269   0.000057  -0.000004  -0.000012   0.000450  -0.000018
     5  O    0.011817  -0.003906   0.000098   0.000000  -0.000001   0.000000
     6  H   -0.014950   0.025547  -0.000696   0.000000   0.000000   0.000000
     7  H    0.445708   0.224709  -0.016777   0.000000   0.000000   0.000000
     8  O    0.224709   8.236018   0.238671   0.000000   0.000000   0.000000
     9  H   -0.016777   0.238671   0.384650   0.000000   0.000000   0.000000
    10  H    0.000000   0.000000   0.000000   0.399440   0.235895  -0.018603
    11  O    0.000000   0.000000   0.000000   0.235895   8.206047   0.229296
    12  H    0.000000   0.000000   0.000000  -0.018603   0.229296   0.450106
    13  H   -0.000011   0.000000   0.000000  -0.000729   0.026504  -0.006687
    14  O    0.000441  -0.000009  -0.000001   0.000109  -0.003823   0.003015
    15  H    0.000286   0.000015   0.000017  -0.000004   0.000020   0.000508
    16  H   -0.000025   0.000188  -0.000151   0.000000   0.000000  -0.000007
    17  O    0.000768  -0.000239   0.003348   0.000000   0.000000   0.000000
    18  H   -0.000011   0.000027  -0.000034   0.000000   0.000000   0.000000
    19  H    0.000000   0.000000   0.000000  -0.000265   0.000100  -0.000063
    20  O    0.000000   0.000000   0.000000   0.002953  -0.000280   0.001667
    21  H    0.000000   0.000000   0.000000  -0.000083   0.000025  -0.000049
    22  H    0.000000   0.000000   0.000000   0.000002   0.000003   0.000062
    23  O    0.000000   0.000000   0.000000   0.000000   0.000000  -0.000007
    24  H    0.000000   0.000000   0.000000   0.000000   0.000000   0.000000
    25  H    0.000000   0.000000   0.000000   0.000000   0.000000   0.000000
    26  O    0.000000   0.000000   0.000000   0.000000   0.000000   0.000000
    27  H    0.000000   0.000000   0.000000   0.000000   0.000000   0.000000
    28  H    0.000000   0.000000   0.000000   0.000002  -0.000001   0.000000
    29  O    0.000000   0.000000   0.000000   0.000017  -0.000011   0.000001
    30  H    0.000000   0.000000   0.000000   0.000003   0.000061  -0.000003
    31  H   -0.000019  -0.000017   0.000001   0.000000  -0.000001   0.000000
    32  O   -0.000004  -0.000004   0.000000   0.000000   0.000000   0.000000
    33  H    0.000001  -0.000001  -0.000002   0.000000   0.000000   0.000000
    34  H   -0.000396   0.005459  -0.001206   0.000000   0.000000   0.000000
    35  O    0.000222  -0.002055   0.006129   0.000000   0.000000   0.000000
    36  H   -0.000044   0.000397  -0.000242   0.000000   0.000000   0.000000
    37  H    0.000000   0.000000   0.000000  -0.000319   0.000116  -0.000005
    38  O    0.000000   0.000000   0.000000   0.010766  -0.001336   0.000041
    39  H    0.000000   0.000000   0.000000  -0.001866   0.000289  -0.000003
    40  H    0.000000   0.000000   0.000000   0.000008   0.000007  -0.000006
    41  O    0.000000   0.000000   0.000000   0.000000   0.000000  -0.000001
    42  H    0.000001   0.000000   0.000000   0.000000  -0.000002  -0.000005
    43  H    0.000000   0.000000   0.000001   0.000000   0.000000   0.000000
    44  O    0.000000   0.000000   0.000006   0.000000   0.000000   0.000000
    45  H    0.000000   0.000000   0.000000   0.000000   0.000000   0.000000
    46  H    0.000000   0.000000   0.000000  -0.000003   0.000000   0.000000
    47  O    0.000000   0.000000   0.000000  -0.000004   0.000000   0.000000
    48  H    0.000000   0.000000   0.000000   0.000000   0.000000   0.000000
             13         14         15         16         17         18
     1  H   -0.000001   0.000000   0.000000   0.000000   0.000000   0.000000
     2  O   -0.000001   0.000000   0.000000   0.000000   0.000000   0.000000
     3  H    0.000022  -0.000018   0.000000   0.000000   0.000000   0.000000
     4  H   -0.000396   0.009159  -0.000273  -0.000008   0.000000   0.000000
     5  O    0.000075  -0.000949   0.000331  -0.000003   0.000000   0.000000
     6  H   -0.000008   0.000737  -0.000074   0.000008  -0.000006   0.000000
     7  H   -0.000011   0.000441   0.000286  -0.000025   0.000768  -0.000011
     8  O    0.000000  -0.000009   0.000015   0.000188  -0.000239   0.000027
     9  H    0.000000  -0.000001   0.000017  -0.000151   0.003348  -0.000034
    10  H   -0.000729   0.000109  -0.000004   0.000000   0.000000   0.000000
    11  O    0.026504  -0.003823   0.000020   0.000000   0.000000   0.000000
    12  H   -0.006687   0.003015   0.000508  -0.000007   0.000000   0.000000
    13  H    0.394352   0.224324  -0.019654   0.000180   0.000010   0.000000
    14  O    0.224324   8.240435   0.230388   0.009593  -0.000592   0.000006
    15  H   -0.019654   0.230388   0.438990  -0.000387   0.000158  -0.000043
    16  H    0.000180   0.009593  -0.000387   0.468801   0.228195  -0.022246
    17  O    0.000010  -0.000592   0.000158   0.228195   8.252462   0.239300
    18  H    0.000000   0.000006  -0.000043  -0.022246   0.239300   0.390535
    19  H    0.000008   0.000000   0.000000   0.000000   0.000000   0.000000
    20  O   -0.000029   0.000000   0.000000   0.000000   0.000000   0.000000
    21  H    0.000001   0.000000   0.000000   0.000000   0.000000   0.000000
    22  H    0.000069   0.000021   0.000002   0.000001   0.000000   0.000000
    23  O    0.000337  -0.000007   0.000023   0.000015   0.000000   0.000000
    24  H   -0.000012   0.000001   0.000000  -0.000004   0.000000   0.000000
    25  H    0.000009  -0.000003   0.000004   0.000207   0.000881  -0.000313
    26  O    0.000000   0.000000  -0.000006   0.000724  -0.000521   0.004986
    27  H    0.000000   0.000000   0.000000  -0.000018   0.000061  -0.000163
    28  H    0.000000   0.000000   0.000000   0.000000   0.000000   0.000000
    29  O    0.000000  -0.000001   0.000000   0.000000   0.000000   0.000000
    30  H    0.000030   0.000068  -0.000001   0.000000   0.000000   0.000000
    31  H   -0.000001  -0.000007   0.000000   0.000000   0.000000   0.000000
    32  O    0.000000   0.000000   0.000000   0.000000   0.000000   0.000000
    33  H    0.000000   0.000000   0.000000   0.000000   0.000000   0.000000
    34  H    0.000000   0.000000   0.000000   0.000000   0.000000   0.000000
    35  O    0.000000   0.000000   0.000000   0.000006  -0.000003   0.000015
    36  H   -0.000001  -0.000001   0.000000   0.000007   0.000022   0.000002
    37  H    0.000001   0.000000   0.000000   0.000000   0.000000   0.000000
    38  O    0.000057   0.000000   0.000000   0.000000   0.000000   0.000000
    39  H    0.000004   0.000000   0.000000   0.000000   0.000000   0.000000
    40  H    0.000306   0.000397  -0.000020   0.000007   0.000000   0.000000
    41  O    0.000911  -0.001346   0.000110  -0.000092  -0.000001  -0.000003
    42  H    0.000011   0.009109  -0.000642   0.001458   0.000119   0.000118
    43  H    0.000000  -0.000048   0.000005   0.000246   0.000531   0.000347
    44  O    0.000000   0.000000   0.000000  -0.000006  -0.000539   0.010503
    45  H    0.000000   0.000000   0.000000   0.000012  -0.000003   0.000378
    46  H    0.000000   0.000000   0.000000   0.000000   0.000000   0.000000
    47  O    0.000000   0.000000   0.000000   0.000000   0.000000   0.000000
    48  H    0.000000   0.000000   0.000000   0.000000   0.000000   0.000000
             19         20         21         22         23         24
     1  H    0.000000   0.000000   0.000000   0.000000   0.000000   0.000000
     2  O    0.000000   0.000000   0.000000   0.000000   0.000000   0.000000
     3  H    0.000000   0.000000   0.000000   0.000000   0.000000   0.000000
     4  H    0.000000   0.000000   0.000000   0.000000   0.000000   0.000000
     5  O    0.000000   0.000000   0.000000   0.000000   0.000000   0.000000
     6  H    0.000000   0.000000   0.000000   0.000000   0.000000   0.000000
     7  H    0.000000   0.000000   0.000000   0.000000   0.000000   0.000000
     8  O    0.000000   0.000000   0.000000   0.000000   0.000000   0.000000
     9  H    0.000000   0.000000   0.000000   0.000000   0.000000   0.000000
    10  H   -0.000265   0.002953  -0.000083   0.000002   0.000000   0.000000
    11  O    0.000100  -0.000280   0.000025   0.000003   0.000000   0.000000
    12  H   -0.000063   0.001667  -0.000049   0.000062  -0.000007   0.000000
    13  H    0.000008  -0.000029   0.000001   0.000069   0.000337  -0.000012
    14  O    0.000000   0.000000   0.000000   0.000021  -0.000007   0.000001
    15  H    0.000000   0.000000   0.000000   0.000002   0.000023   0.000000
    16  H    0.000000   0.000000   0.000000   0.000001   0.000015  -0.000004
    17  O    0.000000   0.000000   0.000000   0.000000   0.000000   0.000000
    18  H    0.000000   0.000000   0.000000   0.000000   0.000000   0.000000
    19  H    0.407136   0.238657  -0.021674   0.000379  -0.000013   0.000000
    20  O    0.238657   8.233693   0.242117   0.006178  -0.000076  -0.000004
    21  H   -0.021674   0.242117   0.416204   0.000515   0.000038   0.000014
    22  H    0.000379   0.006178   0.000515   0.381077   0.239152  -0.018698
    23  O   -0.000013  -0.000076   0.000038   0.239152   8.235906   0.233850
    24  H    0.000000  -0.000004   0.000014  -0.018698   0.233850   0.433786
    25  H    0.000000   0.000000   0.000000  -0.000690   0.024587  -0.006540
    26  O    0.000000   0.000000   0.000000   0.000062  -0.002067   0.001447
    27  H    0.000000   0.000000   0.000000  -0.000002   0.000026   0.000418
    28  H    0.000000   0.000000   0.000000   0.000000   0.000000   0.000000
    29  O    0.000000   0.000000   0.000000   0.000000   0.000000   0.000000
    30  H    0.000000   0.000000   0.000000   0.000000   0.000000   0.000000
    31  H    0.000000   0.000000   0.000000   0.000000   0.000000   0.000000
    32  O    0.000000   0.000000   0.000000   0.000000   0.000000   0.000000
    33  H    0.000000   0.000000   0.000000   0.000000   0.000000   0.000000
    34  H    0.000000   0.000000   0.000000   0.000000   0.000000   0.000000
    35  O    0.000000   0.000000   0.000000   0.000000   0.000000   0.000000
    36  H    0.000000   0.000000   0.000000   0.000000   0.000000   0.000000
    37  H   -0.000008   0.000000   0.000000   0.000000   0.000000   0.000000
    38  O    0.000226  -0.000012   0.000000   0.000000   0.000000   0.000000
    39  H    0.000336   0.000120  -0.000005   0.000000   0.000000   0.000000
    40  H    0.000000   0.000000   0.000000   0.000002   0.000000   0.000000
    41  O    0.000000   0.000000   0.000000   0.000000   0.000000   0.000000
    42  H    0.000000   0.000000   0.000000  -0.000001   0.000037  -0.000001
    43  H    0.000000   0.000000   0.000000   0.000000  -0.000001   0.000000
    44  O    0.000000   0.000000   0.000000   0.000000   0.000000   0.000000
    45  H    0.000000   0.000000   0.000000   0.000000   0.000000   0.000000
    46  H   -0.000682   0.000022   0.000002  -0.000032   0.000000   0.000000
    47  O    0.006996  -0.000148  -0.000008   0.000960  -0.000010  -0.000001
    48  H   -0.000226   0.000008   0.000000  -0.000065   0.000047   0.000000
             25         26         27         28         29         30
     1  H    0.000000   0.000000   0.000000  -0.000015   0.000316  -0.000011
     2  O    0.000000   0.000000   0.000000   0.000785  -0.009253   0.000426
     3  H    0.000000   0.000000   0.000000  -0.003174   0.044155  -0.002338
     4  H    0.000000   0.000000   0.000000  -0.000007   0.000093   0.000061
     5  O    0.000000   0.000000   0.000000   0.000000  -0.000012  -0.000070
     6  H    0.000000   0.000000   0.000000   0.000000  -0.000011  -0.000012
     7  H    0.000000   0.000000   0.000000   0.000000   0.000000   0.000000
     8  O    0.000000   0.000000   0.000000   0.000000   0.000000   0.000000
     9  H    0.000000   0.000000   0.000000   0.000000   0.000000   0.000000
    10  H    0.000000   0.000000   0.000000   0.000002   0.000017   0.000003
    11  O    0.000000   0.000000   0.000000  -0.000001  -0.000011   0.000061
    12  H    0.000000   0.000000   0.000000   0.000000   0.000001  -0.000003
    13  H    0.000009   0.000000   0.000000   0.000000   0.000000   0.000030
    14  O   -0.000003   0.000000   0.000000   0.000000  -0.000001   0.000068
    15  H    0.000004  -0.000006   0.000000   0.000000   0.000000  -0.000001
    16  H    0.000207   0.000724  -0.000018   0.000000   0.000000   0.000000
    17  O    0.000881  -0.000521   0.000061   0.000000   0.000000   0.000000
    18  H   -0.000313   0.004986  -0.000163   0.000000   0.000000   0.000000
    19  H    0.000000   0.000000   0.000000   0.000000   0.000000   0.000000
    20  O    0.000000   0.000000   0.000000   0.000000   0.000000   0.000000
    21  H    0.000000   0.000000   0.000000   0.000000   0.000000   0.000000
    22  H   -0.000690   0.000062  -0.000002   0.000000   0.000000   0.000000
    23  O    0.024587  -0.002067   0.000026   0.000000   0.000000   0.000000
    24  H   -0.006540   0.001447   0.000418   0.000000   0.000000   0.000000
    25  H    0.392321   0.234630  -0.022402   0.000000   0.000000   0.000000
    26  O    0.234630   8.257111   0.240434   0.000000   0.000000   0.000000
    27  H   -0.022402   0.240434   0.443697   0.000000   0.000000   0.000000
    28  H    0.000000   0.000000   0.000000   0.396426   0.239665  -0.017394
    29  O    0.000000   0.000000   0.000000   0.239665   8.181821   0.225388
    30  H    0.000000   0.000000   0.000000  -0.017394   0.225388   0.394057
    31  H    0.000000   0.000000   0.000000  -0.000380   0.013313   0.000059
    32  O    0.000000   0.000000   0.000000   0.000112  -0.001569   0.002744
    33  H    0.000000   0.000000   0.000000  -0.000001  -0.000006   0.000957
    34  H    0.000000   0.000000   0.000000   0.000000   0.000000  -0.000016
    35  O    0.000000   0.000000   0.000000   0.000000   0.000000  -0.000001
    36  H    0.000000   0.000000   0.000000   0.000000   0.000000   0.000018
    37  H    0.000000   0.000000   0.000000   0.000919   0.003829   0.000412
    38  O    0.000000   0.000000   0.000000   0.000120  -0.000376   0.000488
    39  H    0.000000   0.000000   0.000000  -0.000003   0.000014  -0.000016
    40  H    0.000000   0.000000   0.000000   0.000035   0.000206  -0.000463
    41  O    0.000000   0.000000   0.000000  -0.000003  -0.000253   0.010034
    42  H    0.000017  -0.000008   0.000000   0.000000   0.000008  -0.000329
    43  H   -0.000006   0.000300  -0.000008   0.000000   0.000000  -0.000001
    44  O    0.000002  -0.000014   0.000003   0.000000   0.000000   0.000000
    45  H   -0.000002   0.000081   0.000004   0.000000   0.000000   0.000000
    46  H    0.000000   0.000000   0.000000   0.000000   0.000000   0.000000
    47  O    0.000000   0.000000   0.000000   0.000000   0.000000  -0.000001
    48  H    0.000000   0.000000   0.000000   0.000000   0.000000   0.000000
             31         32         33         34         35         36
     1  H    0.000001   0.000000   0.000000   0.000000   0.000000   0.000000
     2  O   -0.000030   0.000000   0.000000   0.000000   0.000000   0.000000
     3  H    0.000260  -0.000008  -0.000001   0.000000   0.000000   0.000000
     4  H    0.000389  -0.000020   0.000000   0.000003   0.000000   0.000000
     5  O    0.003431  -0.000144   0.000001  -0.000081  -0.000002  -0.000002
     6  H    0.000985   0.001006  -0.000058   0.001478   0.000250   0.000194
     7  H   -0.000019  -0.000004   0.000001  -0.000396   0.000222  -0.000044
     8  O   -0.000017  -0.000004  -0.000001   0.005459  -0.002055   0.000397
     9  H    0.000001   0.000000  -0.000002  -0.001206   0.006129  -0.000242
    10  H    0.000000   0.000000   0.000000   0.000000   0.000000   0.000000
    11  O   -0.000001   0.000000   0.000000   0.000000   0.000000   0.000000
    12  H    0.000000   0.000000   0.000000   0.000000   0.000000   0.000000
    13  H   -0.000001   0.000000   0.000000   0.000000   0.000000  -0.000001
    14  O   -0.000007   0.000000   0.000000   0.000000   0.000000  -0.000001
    15  H    0.000000   0.000000   0.000000   0.000000   0.000000   0.000000
    16  H    0.000000   0.000000   0.000000   0.000000   0.000006   0.000007
    17  O    0.000000   0.000000   0.000000   0.000000  -0.000003   0.000022
    18  H    0.000000   0.000000   0.000000   0.000000   0.000015   0.000002
    19  H    0.000000   0.000000   0.000000   0.000000   0.000000   0.000000
    20  O    0.000000   0.000000   0.000000   0.000000   0.000000   0.000000
    21  H    0.000000   0.000000   0.000000   0.000000   0.000000   0.000000
    22  H    0.000000   0.000000   0.000000   0.000000   0.000000   0.000000
    23  O    0.000000   0.000000   0.000000   0.000000   0.000000   0.000000
    24  H    0.000000   0.000000   0.000000   0.000000   0.000000   0.000000
    25  H    0.000000   0.000000   0.000000   0.000000   0.000000   0.000000
    26  O    0.000000   0.000000   0.000000   0.000000   0.000000   0.000000
    27  H    0.000000   0.000000   0.000000   0.000000   0.000000   0.000000
    28  H   -0.000380   0.000112  -0.000001   0.000000   0.000000   0.000000
    29  O    0.013313  -0.001569  -0.000006   0.000000   0.000000   0.000000
    30  H    0.000059   0.002744   0.000957  -0.000016  -0.000001   0.000018
    31  H    0.397788   0.234470  -0.022779  -0.000589   0.000331   0.000345
    32  O    0.234470   8.242492   0.235466   0.018928  -0.004886   0.001143
    33  H   -0.022779   0.235466   0.427215  -0.002967   0.007901   0.002864
    34  H   -0.000589   0.018928  -0.002967   0.374958   0.237070  -0.023416
    35  O    0.000331  -0.004886   0.007901   0.237070   8.270930   0.236391
    36  H    0.000345   0.001143   0.002864  -0.023416   0.236391   0.440214
    37  H   -0.000009   0.000000   0.000000   0.000000   0.000000   0.000000
    38  O    0.000000   0.000000   0.000000   0.000000   0.000000   0.000000
    39  H    0.000000   0.000000   0.000000   0.000000   0.000000   0.000000
    40  H   -0.000281   0.000008  -0.000068   0.000001   0.000011  -0.000223
    41  O    0.000887  -0.000217   0.001238  -0.000021  -0.000260   0.007928
    42  H    0.000008   0.000021  -0.000056   0.000020   0.000186  -0.001309
    43  H   -0.000001  -0.000001   0.000005  -0.000013   0.000243  -0.003491
    44  O    0.000000   0.000000  -0.000008   0.000033  -0.000902   0.008622
    45  H    0.000000   0.000000   0.000000  -0.000003   0.000071  -0.000216
    46  H    0.000000   0.000000   0.000000   0.000000   0.000000   0.000000
    47  O    0.000000   0.000000   0.000000   0.000000   0.000000   0.000000
    48  H    0.000000   0.000000   0.000000   0.000000   0.000000   0.000000
             37         38         39         40         41         42
     1  H    0.000000   0.000000   0.000000   0.000000   0.000000   0.000000
     2  O    0.000001   0.000000   0.000000   0.000000   0.000000   0.000000
     3  H   -0.000009   0.000023  -0.000001   0.000004  -0.000002   0.000000
     4  H    0.000000   0.000000   0.000000   0.000000   0.000003  -0.000002
     5  O    0.000000   0.000000   0.000000   0.000000   0.000000   0.000001
     6  H    0.000000   0.000000   0.000000   0.000001   0.000010   0.000010
     7  H    0.000000   0.000000   0.000000   0.000000   0.000000   0.000001
     8  O    0.000000   0.000000   0.000000   0.000000   0.000000   0.000000
     9  H    0.000000   0.000000   0.000000   0.000000   0.000000   0.000000
    10  H   -0.000319   0.010766  -0.001866   0.000008   0.000000   0.000000
    11  O    0.000116  -0.001336   0.000289   0.000007   0.000000  -0.000002
    12  H   -0.000005   0.000041  -0.000003  -0.000006  -0.000001  -0.000005
    13  H    0.000001   0.000057   0.000004   0.000306   0.000911   0.000011
    14  O    0.000000   0.000000   0.000000   0.000397  -0.001346   0.009109
    15  H    0.000000   0.000000   0.000000  -0.000020   0.000110  -0.000642
    16  H    0.000000   0.000000   0.000000   0.000007  -0.000092   0.001458
    17  O    0.000000   0.000000   0.000000   0.000000  -0.000001   0.000119
    18  H    0.000000   0.000000   0.000000   0.000000  -0.000003   0.000118
    19  H   -0.000008   0.000226   0.000336   0.000000   0.000000   0.000000
    20  O    0.000000  -0.000012   0.000120   0.000000   0.000000   0.000000
    21  H    0.000000   0.000000  -0.000005   0.000000   0.000000   0.000000
    22  H    0.000000   0.000000   0.000000   0.000002   0.000000  -0.000001
    23  O    0.000000   0.000000   0.000000   0.000000   0.000000   0.000037
    24  H    0.000000   0.000000   0.000000   0.000000   0.000000  -0.000001
    25  H    0.000000   0.000000   0.000000   0.000000   0.000000   0.000017
    26  O    0.000000   0.000000   0.000000   0.000000   0.000000  -0.000008
    27  H    0.000000   0.000000   0.000000   0.000000   0.000000   0.000000
    28  H    0.000919   0.000120  -0.000003   0.000035  -0.000003   0.000000
    29  O    0.003829  -0.000376   0.000014   0.000206  -0.000253   0.000008
    30  H    0.000412   0.000488  -0.000016  -0.000463   0.010034  -0.000329
    31  H   -0.000009   0.000000   0.000000  -0.000281   0.000887   0.000008
    32  O    0.000000   0.000000   0.000000   0.000008  -0.000217   0.000021
    33  H    0.000000   0.000000   0.000000  -0.000068   0.001238  -0.000056
    34  H    0.000000   0.000000   0.000000   0.000001  -0.000021   0.000020
    35  O    0.000000   0.000000   0.000000   0.000011  -0.000260   0.000186
    36  H    0.000000   0.000000   0.000000  -0.000223   0.007928  -0.001309
    37  H    0.430001   0.235477  -0.019971  -0.000248   0.000001   0.000001
    38  O    0.235477   8.199685   0.235432   0.002745  -0.000018  -0.000002
    39  H   -0.019971   0.235432   0.437143  -0.000085   0.000001   0.000000
    40  H   -0.000248   0.002745  -0.000085   0.411045   0.235798  -0.018662
    41  O    0.000001  -0.000018   0.000001   0.235798   8.237104   0.234051
    42  H    0.000001  -0.000002   0.000000  -0.018662   0.234051   0.397277
    43  H    0.000000   0.000000   0.000000  -0.000062   0.003422   0.002044
    44  O    0.000000   0.000000   0.000000   0.000005  -0.000183   0.000008
    45  H    0.000000   0.000000   0.000000   0.000000   0.000001   0.000017
    46  H    0.000007   0.002011  -0.000099  -0.000007   0.000000   0.000000
    47  O    0.000306  -0.000426   0.001402   0.000281  -0.000001  -0.000001
    48  H   -0.000025   0.000172  -0.000050   0.000089   0.000012   0.000005
             43         44         45         46         47         48
     1  H    0.000000   0.000000   0.000000   0.000000   0.000000   0.000000
     2  O    0.000000   0.000000   0.000000   0.000000   0.000000   0.000000
     3  H    0.000000   0.000000   0.000000   0.000000   0.000000   0.000000
     4  H    0.000000   0.000000   0.000000   0.000000   0.000000   0.000000
     5  O    0.000000   0.000000   0.000000   0.000000   0.000000   0.000000
     6  H    0.000000   0.000000   0.000000   0.000000   0.000000   0.000000
     7  H    0.000000   0.000000   0.000000   0.000000   0.000000   0.000000
     8  O    0.000000   0.000000   0.000000   0.000000   0.000000   0.000000
     9  H    0.000001   0.000006   0.000000   0.000000   0.000000   0.000000
    10  H    0.000000   0.000000   0.000000  -0.000003  -0.000004   0.000000
    11  O    0.000000   0.000000   0.000000   0.000000   0.000000   0.000000
    12  H    0.000000   0.000000   0.000000   0.000000   0.000000   0.000000
    13  H    0.000000   0.000000   0.000000   0.000000   0.000000   0.000000
    14  O   -0.000048   0.000000   0.000000   0.000000   0.000000   0.000000
    15  H    0.000005   0.000000   0.000000   0.000000   0.000000   0.000000
    16  H    0.000246  -0.000006   0.000012   0.000000   0.000000   0.000000
    17  O    0.000531  -0.000539  -0.000003   0.000000   0.000000   0.000000
    18  H    0.000347   0.010503   0.000378   0.000000   0.000000   0.000000
    19  H    0.000000   0.000000   0.000000  -0.000682   0.006996  -0.000226
    20  O    0.000000   0.000000   0.000000   0.000022  -0.000148   0.000008
    21  H    0.000000   0.000000   0.000000   0.000002  -0.000008   0.000000
    22  H    0.000000   0.000000   0.000000  -0.000032   0.000960  -0.000065
    23  O   -0.000001   0.000000   0.000000   0.000000  -0.000010   0.000047
    24  H    0.000000   0.000000   0.000000   0.000000  -0.000001   0.000000
    25  H   -0.000006   0.000002  -0.000002   0.000000   0.000000   0.000000
    26  O    0.000300  -0.000014   0.000081   0.000000   0.000000   0.000000
    27  H   -0.000008   0.000003   0.000004   0.000000   0.000000   0.000000
    28  H    0.000000   0.000000   0.000000   0.000000   0.000000   0.000000
    29  O    0.000000   0.000000   0.000000   0.000000   0.000000   0.000000
    30  H   -0.000001   0.000000   0.000000   0.000000  -0.000001   0.000000
    31  H   -0.000001   0.000000   0.000000   0.000000   0.000000   0.000000
    32  O   -0.000001   0.000000   0.000000   0.000000   0.000000   0.000000
    33  H    0.000005  -0.000008   0.000000   0.000000   0.000000   0.000000
    34  H   -0.000013   0.000033  -0.000003   0.000000   0.000000   0.000000
    35  O    0.000243  -0.000902   0.000071   0.000000   0.000000   0.000000
    36  H   -0.003491   0.008622  -0.000216   0.000000   0.000000   0.000000
    37  H    0.000000   0.000000   0.000000   0.000007   0.000306  -0.000025
    38  O    0.000000   0.000000   0.000000   0.002011  -0.000426   0.000172
    39  H    0.000000   0.000000   0.000000  -0.000099   0.001402  -0.000050
    40  H   -0.000062   0.000005   0.000000  -0.000007   0.000281   0.000089
    41  O    0.003422  -0.000183   0.000001   0.000000  -0.000001   0.000012
    42  H    0.002044   0.000008   0.000017   0.000000  -0.000001   0.000005
    43  H    0.453930   0.229415  -0.020643   0.000000   0.000000   0.000000
    44  O    0.229415   8.194249   0.239208   0.000000   0.000000   0.000000
    45  H   -0.020643   0.239208   0.415514   0.000000   0.000000   0.000000
    46  H    0.000000   0.000000   0.000000   0.425885   0.239988  -0.021392
    47  O    0.000000   0.000000   0.000000   0.239988   8.223081   0.243286
    48  H    0.000000   0.000000   0.000000  -0.021392   0.243286   0.405927
 Mulliken atomic charges:
              1
     1  H    0.303048
     2  O   -0.773687
     3  H    0.411556
     4  H    0.364368
     5  O   -0.768781
     6  H    0.368273
     7  H    0.348019
     8  O   -0.724854
     9  H    0.386193
    10  H    0.372647
    11  O   -0.695294
    12  H    0.340803
    13  H    0.380318
    14  O   -0.720999
    15  H    0.350244
    16  H    0.313300
    17  O   -0.723950
    18  H    0.376597
    19  H    0.369093
    20  O   -0.724867
    21  H    0.362903
    22  H    0.391000
    23  O   -0.731837
    24  H    0.355744
    25  H    0.377300
    26  O   -0.737160
    27  H    0.337950
    28  H    0.382914
    29  O   -0.697333
    30  H    0.385848
    31  H    0.371846
    32  O   -0.729538
    33  H    0.350299
    34  H    0.390757
    35  O   -0.751647
    36  H    0.330799
    37  H    0.349522
    38  O   -0.685074
    39  H    0.347358
    40  H    0.369170
    41  O   -0.729113
    42  H    0.376491
    43  H    0.333786
    44  O   -0.680403
    45  H    0.365581
    46  H    0.354301
    47  O   -0.715702
    48  H    0.372211
 Sum of Mulliken charges=   0.00000
 Atomic charges with hydrogens summed into heavy atoms:
              1
     1  H    0.000000
     2  O   -0.059083
     3  H    0.000000
     4  H    0.000000
     5  O   -0.036139
     6  H    0.000000
     7  H    0.000000
     8  O    0.009358
     9  H    0.000000
    10  H    0.000000
    11  O    0.018155
    12  H    0.000000
    13  H    0.000000
    14  O    0.009563
    15  H    0.000000
    16  H    0.000000
    17  O   -0.034054
    18  H    0.000000
    19  H    0.000000
    20  O    0.007129
    21  H    0.000000
    22  H    0.000000
    23  O    0.014907
    24  H    0.000000
    25  H    0.000000
    26  O   -0.021911
    27  H    0.000000
    28  H    0.000000
    29  O    0.071429
    30  H    0.000000
    31  H    0.000000
    32  O   -0.007393
    33  H    0.000000
    34  H    0.000000
    35  O   -0.030091
    36  H    0.000000
    37  H    0.000000
    38  O    0.011806
    39  H    0.000000
    40  H    0.000000
    41  O    0.016548
    42  H    0.000000
    43  H    0.000000
    44  O    0.018965
    45  H    0.000000
    46  H    0.000000
    47  O    0.010811
    48  H    0.000000
 Sum of Mulliken charges=   0.00000
 Electronic spatial extent (au):  <R**2>=  8879.6012
 Charge=     0.0000 electrons
 Dipole moment (field-independent basis, Debye):
    X=    18.7101    Y=    17.1430    Z=     9.1659  Tot=    26.9808
 Quadrupole moment (field-independent basis, Debye-Ang):
   XX=   -84.5262   YY=   -94.9603   ZZ=   -88.1254
   XY=    -6.9599   XZ=    13.5389   YZ=   -18.3669
 Traceless Quadrupole moment (field-independent basis, Debye-Ang):
   XX=     4.6778   YY=    -5.7563   ZZ=     1.0785
   XY=    -6.9599   XZ=    13.5389   YZ=   -18.3669
 Octapole moment (field-independent basis, Debye-Ang**2):
  XXX=   321.6774  YYY=   396.7595  ZZZ=    62.4785  XYY=   100.7162
  XXY=    94.6851  XXZ=    66.7459  XZZ=   107.8774  YZZ=    33.7804
  YYZ=   101.4017  XYZ=   -49.9141
 Hexadecapole moment (field-independent basis, Debye-Ang**3):
 XXXX= -3687.0514 YYYY= -3094.3207 ZZZZ= -1214.1590 XXXY=  -103.1503
 XXXZ=   334.9077 YYYX=   -92.6422 YYYZ=  -248.1160 ZZZX=   120.9820
 ZZZY=   -62.2015 XXYY=  -994.7288 XXZZ=  -819.4222 YYZZ=  -832.7468
 XXYZ=    -4.5184 YYXZ=  -125.2317 ZZXY=     2.0943
 N-N= 1.453831979661D+03 E-N=-5.780805606499D+03  KE= 1.200168452638D+03
 ***** Axes restored to original set *****
 -------------------------------------------------------------------
 Center     Atomic                   Forces (Hartrees/Bohr)
 Number     Number              X              Y              Z
 -------------------------------------------------------------------
    1          1           0.066035139   -0.016851969    0.062758333
    2          8           0.001778137    0.040158701   -0.024209461
    3          1          -0.067563369   -0.020900703   -0.036970711
    4          1           0.018362800   -0.047170244    0.075699994
    5          8           0.023403807    0.050684744    0.006073905
    6          1          -0.035799696   -0.004718193   -0.081209054
    7          1           0.054916814   -0.013952193    0.071720655
    8          8          -0.032272003    0.040640762    0.007408767
    9          1          -0.030226087   -0.026476101   -0.085495005
   10          1          -0.037612537   -0.023038751    0.086720169
   11          8          -0.021917918    0.045796095   -0.007412263
   12          1           0.051475456   -0.021098674   -0.076067237
   13          1          -0.005948977   -0.050965520    0.073983695
   14          8          -0.031383778    0.049725207    0.011786001
   15          1           0.037028984   -0.002629420   -0.086778596
   16          1           0.032469351    0.006721591    0.094832152
   17          8           0.032750040    0.016249988   -0.024841116
   18          1          -0.059487299   -0.024540846   -0.069337289
   19          1          -0.083773559   -0.002922943    0.032608993
   20          8           0.017466113    0.044080931    0.013230241
   21          1           0.071740654   -0.041688691   -0.038128279
   22          1          -0.008399250    0.022202973    0.083607259
   23          8          -0.013049812    0.042523755   -0.021265800
   24          1           0.019678080   -0.062567060   -0.065066679
   25          1           0.046146819    0.012936020    0.075358649
   26          8          -0.008351096    0.044582608   -0.020098863
   27          1          -0.031425930   -0.063571082   -0.057348561
   28          1          -0.046253190    0.013214911    0.078073901
   29          8           0.049859167    0.036397679    0.002964179
   30          1          -0.004584211   -0.045566702   -0.077927369
   31          1           0.068649072   -0.021732161    0.062752309
   32          8          -0.001212378    0.050484637   -0.011504745
   33          1          -0.069902067   -0.039008532   -0.048202149
   34          1           0.010063084    0.091995469    0.020134633
   35          8           0.005100025    0.000742927   -0.045599243
   36          1          -0.012456059   -0.092125448    0.029604469
   37          1          -0.079642625    0.046546749   -0.013250500
   38          8           0.025454210    0.004726534   -0.042065039
   39          1           0.056462849   -0.052684342    0.051574106
   40          1          -0.017028244   -0.004440206    0.089699110
   41          8          -0.018338104    0.037223356   -0.011666144
   42          1           0.032514488   -0.033283701   -0.088614580
   43          1           0.030001528   -0.000445646    0.091672530
   44          8          -0.021636293    0.047755274   -0.007896989
   45          1          -0.009072102   -0.038293758   -0.081809460
   46          1          -0.012080187   -0.006495892    0.092636776
   47          8           0.037943641    0.022617951   -0.006046633
   48          1          -0.029883487   -0.010840082   -0.086089060
 -------------------------------------------------------------------
 Cartesian Forces:  Max     0.094832152 RMS     0.046865906
 ------------------------------------------------------------------------
           Internal Coordinate Forces (Hartree/Bohr or radian)
 Cent Atom N1     Length/X     N2     Alpha/Y      N3      Beta/Z       J
 ------------------------------------------------------------------------
   1  H         0.066035(   1)     -0.016852(  49)      0.062758(  97)
   2  O         0.001778(   2)      0.040159(  50)     -0.024209(  98)
   3  H        -0.067563(   3)     -0.020901(  51)     -0.036971(  99)
   4  H         0.018363(   4)     -0.047170(  52)      0.075700( 100)
   5  O         0.023404(   5)      0.050685(  53)      0.006074( 101)
   6  H        -0.035800(   6)     -0.004718(  54)     -0.081209( 102)
   7  H         0.054917(   7)     -0.013952(  55)      0.071721( 103)
   8  O        -0.032272(   8)      0.040641(  56)      0.007409( 104)
   9  H        -0.030226(   9)     -0.026476(  57)     -0.085495( 105)
  10  H        -0.037613(  10)     -0.023039(  58)      0.086720( 106)
  11  O        -0.021918(  11)      0.045796(  59)     -0.007412( 107)
  12  H         0.051475(  12)     -0.021099(  60)     -0.076067( 108)
  13  H        -0.005949(  13)     -0.050966(  61)      0.073984( 109)
  14  O        -0.031384(  14)      0.049725(  62)      0.011786( 110)
  15  H         0.037029(  15)     -0.002629(  63)     -0.086779( 111)
  16  H         0.032469(  16)      0.006722(  64)      0.094832( 112)
  17  O         0.032750(  17)      0.016250(  65)     -0.024841( 113)
  18  H        -0.059487(  18)     -0.024541(  66)     -0.069337( 114)
  19  H        -0.083774(  19)     -0.002923(  67)      0.032609( 115)
  20  O         0.017466(  20)      0.044081(  68)      0.013230( 116)
  21  H         0.071741(  21)     -0.041689(  69)     -0.038128( 117)
  22  H        -0.008399(  22)      0.022203(  70)      0.083607( 118)
  23  O        -0.013050(  23)      0.042524(  71)     -0.021266( 119)
  24  H         0.019678(  24)     -0.062567(  72)     -0.065067( 120)
  25  H         0.046147(  25)      0.012936(  73)      0.075359( 121)
  26  O        -0.008351(  26)      0.044583(  74)     -0.020099( 122)
  27  H        -0.031426(  27)     -0.063571(  75)     -0.057349( 123)
  28  H        -0.046253(  28)      0.013215(  76)      0.078074( 124)
  29  O         0.049859(  29)      0.036398(  77)      0.002964( 125)
  30  H        -0.004584(  30)     -0.045567(  78)     -0.077927( 126)
  31  H         0.068649(  31)     -0.021732(  79)      0.062752( 127)
  32  O        -0.001212(  32)      0.050485(  80)     -0.011505( 128)
  33  H        -0.069902(  33)     -0.039009(  81)     -0.048202( 129)
  34  H         0.010063(  34)      0.091995(  82)      0.020135( 130)
  35  O         0.005100(  35)      0.000743(  83)     -0.045599( 131)
  36  H        -0.012456(  36)     -0.092125(  84)      0.029604( 132)
  37  H        -0.079643(  37)      0.046547(  85)     -0.013251( 133)
  38  O         0.025454(  38)      0.004727(  86)     -0.042065( 134)
  39  H         0.056463(  39)     -0.052684(  87)      0.051574( 135)
  40  H        -0.017028(  40)     -0.004440(  88)      0.089699( 136)
  41  O        -0.018338(  41)      0.037223(  89)     -0.011666( 137)
  42  H         0.032514(  42)     -0.033284(  90)     -0.088615( 138)
  43  H         0.030002(  43)     -0.000446(  91)      0.091673( 139)
  44  O        -0.021636(  44)      0.047755(  92)     -0.007897( 140)
  45  H        -0.009072(  45)     -0.038294(  93)     -0.081809( 141)
  46  H        -0.012080(  46)     -0.006496(  94)      0.092637( 142)
  47  O         0.037944(  47)      0.022618(  95)     -0.006047( 143)
  48  H        -0.029883(  48)     -0.010840(  96)     -0.086089( 144)
 ------------------------------------------------------------------------
 Internal  Forces:  Max     0.094832152 RMS     0.046865906

 GradGradGradGradGradGradGradGradGradGradGradGradGradGradGradGradGradGrad
 Berny optimization.
 Search for a local minimum.
 Step number   1 out of a maximum of   2
 All quantities printed in internal units (Hartrees-Bohrs-Radians)
 Second derivative matrix not updated -- first step.
     Eigenvalues ---    0.00000   0.00000   0.00000   0.00000   0.00000
     Eigenvalues ---    0.00000   0.00000   0.00000   0.00000   0.00000
[...]
           Y33          0.07392
           Z33         -0.09670
           X34         -0.02027
           Y34          0.04279
           Z34          0.02939
           X35          0.03611
           Y35          0.05962
           Z35         -0.01820
           X36         -0.05264
           Y36          0.04603
           Z36         -0.05554
           X37         -0.06816
           Y37         -0.02372
           Z37          0.08131
           X38         -0.09156
           Y38         -0.04902
           Z38          0.00351
           X39         -0.03188
           Y39         -0.04124
           Z39         -0.02238
           X40          0.06821
           Y40          0.02698
           Z40          0.04705
           X41         -0.02835
           Y41         -0.01328
           Z41          0.03800
           X42          0.04892
           Y42          0.09267
           Z42          0.03575
           X43         -0.12408
           Y43          0.00448
           Z43         -0.00977
           X44         -0.06521
           Y44         -0.00287
           Z44         -0.03504
           X45          0.06196
           Y45          0.01506
           Z45         -0.05192
           X46         -0.05424
           Y46          0.08855
           Z46         -0.03186
           X47          0.05536
           Y47          0.07644
           Z47          0.01364
           X48          0.16478
           Y48          0.03600
           Z48         -0.04907
 Eigenvalue  43 out of range, new value =    0.000100 Eigenvector:
                           1
           X1          -0.05829
           Y1           0.01364
           Z1           0.05064
           X2          -0.01551
           Y2          -0.02577
           Z2          -0.01098
           X3          -0.05281
           Y3           0.00389
           Z3           0.04341
           X4           0.25948
           Y4           0.01390
           Z4          -0.07207
           X5           0.05420
           Y5           0.01937
           Z5          -0.04092
           X6          -0.00058
           Y6          -0.05217
           Z6           0.01475
           X7          -0.04417
           Y7           0.16527
           Z7          -0.09684
           X8          -0.07000
           Y8           0.03747
           Z8          -0.13763
           X9          -0.18370
           Y9          -0.19787
           Z9           0.03893
           X10         -0.03868
           Y10         -0.12435
           Z10          0.02968
           X11         -0.05027
           Y11         -0.02364
           Z11          0.07905
           X12         -0.01692
           Y12          0.07446
           Z12          0.04893
           X13         -0.13036
           Y13         -0.01531
           Z13          0.00802
           X14          0.00888
           Y14          0.03464
           Z14          0.04167
           X15          0.02075
           Y15         -0.02140
           Z15          0.06163
           X16         -0.24081
           Y16          0.33203
           Z16          0.06702
           X17          0.04916
           Y17         -0.08140
           Z17          0.02223
           X18          0.06183
           Y18         -0.03678
           Z18         -0.02997
           X19         -0.04163
           Y19          0.18629
           Z19          0.02805
           X20          0.00689
           Y20          0.01258
           Z20          0.00788
           X21         -0.10095
           Y21         -0.12626
           Z21          0.06609
           X22         -0.16926
           Y22          0.00287
           Z22         -0.02605
           X23          0.10491
           Y23         -0.08025
           Z23         -0.01178
           X24          0.26110
           Y24         -0.10788
           Z24          0.13218
           X25         -0.10925
           Y25         -0.10798
           Z25         -0.03776
           X26         -0.09329
           Y26          0.01155
           Z26         -0.04336
           X27         -0.12032
           Y27          0.07430
           Z27         -0.14461
           X28         -0.03436
           Y28         -0.00220
           Z28         -0.02572
           X29         -0.04003
           Y29         -0.00923
           Z29         -0.02994
           X30         -0.03135
           Y30         -0.04066
           Z30         -0.00804
           X31          0.06497
           Y31          0.16019
           Z31          0.00682
           X32         -0.00208
           Y32          0.07288
           Z32          0.03477
           X33         -0.00113
           Y33          0.00298
           Z33          0.13428
           X34          0.09355
           Y34          0.05267
           Z34         -0.08898
           X35         -0.04143
           Y35          0.02200
           Z35          0.00791
           X36         -0.06908
           Y36          0.07778
           Z36          0.09692
           X37          0.01701
           Y37         -0.05936
           Z37         -0.03289
           X38         -0.00066
           Y38         -0.08633
           Z38         -0.06307
           X39         -0.02984
           Y39         -0.16505
           Z39         -0.10620
           X40          0.01554
           Y40         -0.08500
           Z40         -0.00288
           X41          0.10597
           Y41          0.07214
           Z41          0.04443
           X42          0.01821
           Y42          0.04592
           Z42         -0.01200
           X43          0.01666
           Y43         -0.04771
           Z43          0.01113
           X44          0.10920
           Y44         -0.02602
           Z44         -0.01740
           X45          0.05518
           Y45         -0.05016
           Z45          0.00334
           X46          0.09129
           Y46          0.05079
           Z46          0.04678
           X47          0.04092
           Y47          0.05364
           Z47          0.02544
           X48          0.02596
           Y48         -0.02708
           Z48          0.05478
 Quadratic step=4.492D+02 exceeds max=3.000D-01 adjusted using Lamda=-1.440D+00.
 Angle between NR and scaled steps=  83.80 degrees.
 Angle between quadratic step and forces=  10.74 degrees.
 Linear search not attempted -- first point.
 TrRot=  0.000883  0.004791 -0.001606  0.024442 -0.000111 -0.024503
 Variable       Old X    -DE/DX   Delta X   Delta X   Delta X     New X
                                 (Linear)    (Quad)   (Total)
    X1       -0.77034   0.06604   0.00000   0.03656   0.03747  -0.73287
    Y1       -0.53379  -0.01685   0.00000  -0.00904  -0.00420  -0.53799
    Z1       -0.55479   0.06276   0.00000   0.03495   0.03326  -0.52153
    X2        0.47598   0.00178   0.00000  -0.00040   0.00031   0.47628
    Y2       -1.37849   0.04016   0.00000   0.00864   0.01340  -1.36510
    Z2        0.85089  -0.02421   0.00000  -0.00775  -0.00931   0.84158
    X3        2.16824  -0.06756   0.00000  -0.03831  -0.03761   2.13063
    Y3       -0.37785  -0.02090   0.00000  -0.01222  -0.00756  -0.38542
    Z3        1.46551  -0.03697   0.00000  -0.02143  -0.02280   1.44271
    X4        0.20198   0.01836   0.00000   0.01143   0.01168   0.21366
    Y4       -0.09913  -0.04717   0.00000  -0.02655  -0.02179  -0.12092
    Z4        5.58185   0.07570   0.00000   0.04372   0.04214   5.62399
    X5        0.39550   0.02340   0.00000   0.00973   0.00974   0.40523
    Y5       -1.47839   0.05068   0.00000   0.01436   0.01911  -1.45928
    Z5        7.09940   0.00607   0.00000   0.00540   0.00383   7.10323
    X6        1.50257  -0.03580   0.00000  -0.01713  -0.01727   1.48529
    Y6       -1.02181  -0.00472   0.00000  -0.00286   0.00182  -1.01999
    Z6        8.77533  -0.08121   0.00000  -0.04406  -0.04550   8.72983
    X7       -0.30645   0.05492   0.00000   0.02815   0.02778  -0.27867
    Y7       -0.00979  -0.01395   0.00000  -0.00788  -0.00310  -0.01289
    Z7       11.25895   0.07172   0.00000   0.04222   0.04058  11.29953
    X8        1.17726  -0.03227   0.00000  -0.01447  -0.01502   1.16224
    Y8       -0.70757   0.04064   0.00000   0.00842   0.01311  -0.69446
    Z8       12.50574   0.00741   0.00000   0.00518   0.00370  12.50945
    X9        1.66781  -0.03023   0.00000  -0.01733  -0.01799   1.64982
    Y9        0.33591  -0.02648   0.00000  -0.01446  -0.00981   0.32609
    Z9       14.21258  -0.08550   0.00000  -0.04729  -0.04872  14.16387
   X10       -0.30220  -0.03761   0.00000  -0.02306  -0.02185  -0.32404
   Y10        5.64356  -0.02304   0.00000  -0.01305  -0.00824   5.63532
   Z10        0.12933   0.08672   0.00000   0.04969   0.04806   0.17740
   X11       -0.87015  -0.02192   0.00000  -0.01068  -0.00971  -0.87986
   Y11        4.71966   0.04580   0.00000   0.01141   0.01625   4.73590
   Z11        1.88051  -0.00741   0.00000   0.00078  -0.00091   1.87960
   X12       -2.30694   0.05148   0.00000   0.02505   0.02593  -2.28100
   Y12        5.57701  -0.02110   0.00000  -0.01179  -0.00687   5.57014
   Z12        3.08192  -0.07607   0.00000  -0.04307  -0.04492   3.03700
   X13       -0.01851  -0.00595   0.00000  -0.00520  -0.00460  -0.02310
   Y13        5.56224  -0.05097   0.00000  -0.03007  -0.02529   5.53695
   Z13        5.57419   0.07398   0.00000   0.04223   0.04064   5.61483
   X14        0.04724  -0.03138   0.00000  -0.01225  -0.01190   0.03534
   Y14        4.28905   0.04973   0.00000   0.01526   0.02003   4.30907
   Z14        7.19204   0.01179   0.00000   0.00921   0.00762   7.19966
   X15       -1.20195   0.03703   0.00000   0.01608   0.01627  -1.18567
   Y15        4.59725  -0.00263   0.00000  -0.00223   0.00261   4.59986
   Z15        8.80055  -0.08678   0.00000  -0.04727  -0.04900   8.75156
   X16        0.15722   0.03247   0.00000   0.02162   0.02158   0.17880
   Y16        5.68547   0.00672   0.00000   0.00267   0.00742   5.69289
   Z16       11.41543   0.09483   0.00000   0.05251   0.05094  11.46636
   X17        0.23937   0.03275   0.00000   0.01373   0.01346   0.25283
   Y17        5.52080   0.01625   0.00000  -0.00276   0.00198   5.52277
   Z17       13.46699  -0.02484   0.00000  -0.00730  -0.00887  13.45813
   X18        1.85698  -0.05949   0.00000  -0.03067  -0.03100   1.82598
   Y18        6.26923  -0.02454   0.00000  -0.01514  -0.01050   6.25873
   Z18       14.49945  -0.06934   0.00000  -0.04016  -0.04154  14.45791
   X19        0.12870  -0.08377   0.00000  -0.04691  -0.04535   0.08335
   Y19       11.32087  -0.00292   0.00000  -0.00137   0.00342  11.32428
   Z19        0.17438   0.03261   0.00000   0.02035   0.01878   0.19316
   X20       -1.77959   0.01747   0.00000   0.00599   0.00746  -1.77213
   Y20       10.72970   0.04408   0.00000   0.00958   0.01448  10.74419
   Z20        0.67611   0.01323   0.00000   0.01045   0.00868   0.68479
   X21       -3.11053   0.07174   0.00000   0.04011   0.04157  -3.06896
   Y21       12.09221  -0.04169   0.00000  -0.02329  -0.01832  12.07390
   Z21        1.46030  -0.03813   0.00000  -0.02017  -0.02208   1.43822
   X22       -0.07014  -0.00840   0.00000  -0.00596  -0.00499  -0.07513
   Y22       11.45885   0.02220   0.00000   0.01166   0.01644  11.47529
   Z22        5.52039   0.08361   0.00000   0.04646   0.04488   5.56527
   X23       -0.14483  -0.01305   0.00000  -0.00731  -0.00655  -0.15139
   Y23       11.56522   0.04252   0.00000   0.01017   0.01494  11.58016
   Z23        7.57609  -0.02127   0.00000  -0.00573  -0.00732   7.56876
   X24       -0.68561   0.01968   0.00000   0.00956   0.01033  -0.67528
   Y24       13.32472  -0.06257   0.00000  -0.03469  -0.02988  13.29484
   Z24        8.50047  -0.06507   0.00000  -0.03783  -0.03948   8.46099
   X25        0.16881   0.04615   0.00000   0.02537   0.02567   0.19448
   Y25       11.11147   0.01294   0.00000   0.00637   0.01112  11.12259
   Z25       11.37885   0.07536   0.00000   0.04159   0.04004  11.41889
   X26        1.16656  -0.00835   0.00000  -0.00270  -0.00260   1.16396
   Y26       11.06272   0.04458   0.00000   0.01089   0.01557  11.07829
   Z26       13.18022  -0.02010   0.00000  -0.00599  -0.00744  13.17278
   X27        1.65461  -0.03143   0.00000  -0.01870  -0.01860   1.63601
   Y27       12.81942  -0.06357   0.00000  -0.03551  -0.03086  12.78856
   Z27       14.13865  -0.05735   0.00000  -0.03270  -0.03409  14.10456
   X28        6.35920  -0.04625   0.00000  -0.02311  -0.02223   6.33697
   Y28        0.78616   0.01321   0.00000   0.00571   0.01011   0.79627
   Z28        0.47142   0.07807   0.00000   0.04420   0.04330   0.51472
   X29        5.01732   0.04986   0.00000   0.02044   0.02116   5.03847
   Y29        0.93554   0.03640   0.00000   0.00930   0.01378   0.94931
   Z29        2.02700   0.00296   0.00000   0.00329   0.00225   2.02924
   X30        5.42554  -0.00458   0.00000  -0.00028   0.00033   5.42588
   Y30        2.16422  -0.04557   0.00000  -0.02557  -0.02112   2.14309
   Z30        3.62902  -0.07793   0.00000  -0.04233  -0.04333   3.58569
   X31        5.61754   0.06865   0.00000   0.03736   0.03756   5.65510
   Y31       -0.24922  -0.02173   0.00000  -0.01270  -0.00827  -0.25750
   Z31        5.97863   0.06275   0.00000   0.03544   0.03446   6.01309
   X32        7.08163  -0.00121   0.00000   0.00040   0.00042   7.08205
   Y32       -0.97151   0.05048   0.00000   0.01346   0.01780  -0.95372
   Z32        7.23463  -0.01150   0.00000  -0.00383  -0.00466   7.22997
   X33        8.40394  -0.06990   0.00000  -0.03967  -0.03966   8.36427
   Y33        0.32675  -0.03901   0.00000  -0.02088  -0.01662   0.31013
   Z33        8.13395  -0.04820   0.00000  -0.02704  -0.02772   8.10623
   X34        5.83808   0.01006   0.00000   0.00504   0.00464   5.84272
   Y34       -0.91389   0.09200   0.00000   0.04872   0.05313  -0.86077
   Z34       11.15634   0.02013   0.00000   0.00774   0.00678  11.16312
   X35        6.15330   0.00510   0.00000   0.00527   0.00486   6.15816
   Y35        0.85888   0.00074   0.00000  -0.00673  -0.00235   0.85653
   Z35       12.15669  -0.04560   0.00000  -0.01624  -0.01716  12.13953
   X36        6.32579  -0.01246   0.00000  -0.00735  -0.00754   6.31825
   Y36        2.62174  -0.09213   0.00000  -0.05468  -0.05031   2.57143
   Z36       11.10534   0.02960   0.00000   0.01413   0.01323  11.11857
   X37        5.81796  -0.07964   0.00000  -0.04341  -0.04216   5.77579
   Y37        5.53250   0.04655   0.00000   0.02317   0.02761   5.56011
   Z37       -0.19807  -0.01325   0.00000  -0.01028  -0.01123  -0.20930
   X38        3.99003   0.02545   0.00000   0.00802   0.00930   3.99933
   Y38        6.44785   0.00473   0.00000  -0.00572  -0.00118   6.44667
   Z38        0.05416  -0.04207   0.00000  -0.01569  -0.01684   0.03732
   X39        3.18308   0.05646   0.00000   0.03290   0.03441   3.21749
   Y39        7.57980  -0.05268   0.00000  -0.03205  -0.02745   7.55235
   Z39       -1.46581   0.05157   0.00000   0.02672   0.02549  -1.44032
   X40        5.42967  -0.01703   0.00000  -0.01243  -0.01178   5.41789
   Y40        5.71041  -0.00444   0.00000  -0.00212   0.00232   5.71274
   Z40        5.27769   0.08970   0.00000   0.05029   0.04930   5.32698
   X41        5.51136  -0.01834   0.00000  -0.00554  -0.00514   5.50622
   Y41        5.07415   0.03722   0.00000   0.00866   0.01309   5.08724
   Z41        7.23505  -0.01167   0.00000  -0.00367  -0.00465   7.23040
   X42        4.32615   0.03251   0.00000   0.01465   0.01495   4.34110
   Y42        5.96891  -0.03328   0.00000  -0.02022  -0.01572   5.95319
   Z42        8.66245  -0.08861   0.00000  -0.05096  -0.05207   8.61038
   X43        5.81394   0.03000   0.00000   0.01590   0.01588   5.82982
   Y43        6.74667  -0.00045   0.00000   0.00116   0.00556   6.75223
   Z43       11.83355   0.09167   0.00000   0.05138   0.05044  11.88399
   X44        6.52357  -0.02164   0.00000  -0.00986  -0.01012   6.51345
   Y44        6.12957   0.04776   0.00000   0.01289   0.01725   6.14682
   Z44       13.66615  -0.00790   0.00000  -0.00158  -0.00245  13.66369
   X45        6.55030  -0.00907   0.00000  -0.00586  -0.00620   6.54410
   Y45        7.43739  -0.03829   0.00000  -0.02084  -0.01649   7.42090
   Z45       15.25727  -0.08181   0.00000  -0.04583  -0.04669  15.21057
   X46        5.61856  -0.01208   0.00000  -0.00428  -0.00271   5.61585
   Y46       11.65032  -0.00650   0.00000  -0.00540  -0.00096  11.64936
   Z46        0.17666   0.09264   0.00000   0.05247   0.05151   0.22817
   X47        4.80924   0.03794   0.00000   0.01179   0.01314   4.82238
   Y47       11.35391   0.02262   0.00000   0.00339   0.00788  11.36178
   Z47        2.04747  -0.00605   0.00000  -0.00098  -0.00203   2.04544
   X48        5.92408  -0.02988   0.00000  -0.01451  -0.01331   5.91076
   Y48       11.75937  -0.01084   0.00000  -0.00772  -0.00331  11.75607
   Z48        3.73136  -0.08609   0.00000  -0.04819  -0.04911   3.68225
         Item               Value     Threshold  Converged?
 Maximum Force            0.094832     0.000450     NO 
 RMS     Force            0.046866     0.000300     NO 
 Maximum Displacement     0.053125     0.001800     NO 
 RMS     Displacement     0.024844     0.001200     NO 
 Predicted change in Energy=-1.477214D-01
 GradGradGradGradGradGradGradGradGradGradGradGradGradGradGradGradGradGrad

 1\1\GINC-OUTBACK\Force\RHF\3-21G\H32O16\HUGH\03-Nov-2009\0\\# HF/3-21G
  guess=read force\\Generated by ASE Gaussian driver\\0,1\H,-0.40764652
 02,-0.2824680352,-0.2935832669\O,0.2518759763,-0.7294678231,0.45027240
 87\H,1.1473817204,-0.1999513758,0.7755135414\H,0.1068821699,-0.0524571
 39,2.9537880894\O,0.2092891927,-0.7823309839,3.7568428647\H,0.79512422
 66,-0.5407192717,4.6437031094\H,-0.1621647511,-0.0051781008,5.95797969
 21\O,0.6229788683,-0.3744285375,6.6177551176\H,0.8825694248,0.17775397
 2,7.5209755885\H,-0.1599149872,2.9864431081,0.068440359\O,-0.460463727
 6,2.4975358782,0.9951227076\H,-1.2207789461,2.9512247936,1.6308798441\
 H,-0.0097935115,2.9434094111,2.9497325376\O,0.0249977086,2.269665278,3
 .8058624426\H,-0.6360431259,2.4327625486,4.6570523718\H,0.0831976565,3
 .0086227597,6.0407837054\O,0.1266681315,2.9214805085,7.1264247814\H,0.
 9826697761,3.3175309856,7.6727810791\H,0.0681040391,5.9907450335,0.092
 2782454\O,-0.9417203397,5.6779144342,0.3577810517\H,-1.6460219968,6.39
 89230842,0.7727578008\H,-0.037115076,6.0637610222,2.9212656088\O,-0.07
 6642791,6.1200482634,4.0090934013\H,-0.3628089282,7.0511383052,4.49825
 62331\H,0.0893325352,5.8799369523,6.021430109\O,0.6173168514,5.8541400
 003,6.974670414\H,0.8755803386,6.7837452204,7.4818529313\H,3.365145073
 3,0.4160198792,0.2494656751\O,2.655049574,0.4950641933,1.0726402485\H,
 2.8710737902,1.1452550318,1.9203934033\H,2.9726750803,-0.131884091,3.1
 637542012\O,3.7474365433,-0.5141029659,3.8283995255\H,4.4471724226,0.1
 729102398,4.3043013581\H,3.08937917,-0.4836117367,5.9036804716\O,3.256
 1845215,0.4544985327,6.4330433878\H,3.3474660988,1.3873646103,5.876690
 4828\H,3.0787295044,2.9276737718,-0.1048132692\O,2.1114340666,3.412054
 6794,0.0286583468\H,1.6844137232,4.0110574642,-0.775673233\H,2.8732566
 879,3.0218198562,2.7928327946\O,2.9164885064,2.6851241505,3.8286257331
 \H,2.2893022401,3.158612787,4.5839706203\H,3.0766035572,3.570181833,6.
 2620452705\O,3.4521220314,3.243628683,7.2318127249\H,3.4662702452,3.93
 56988052,8.073797745\H,2.97321345,6.1650816483,0.0934838972\O,2.544938
 7623,6.008227781,1.0834726124\H,3.134885864,6.222792457,1.9745530897\\
 Version=AM64L-G03RevD.01\State=1-A\HF=-1208.9968188\RMSD=4.872e-09\RMS
 F=4.687e-02\Thermal=0.\Dipole=1.2777102,9.8023553,-3.8679728\PG=C01 [X
 (H32O16)]\\@


 IT'S WHAT YOU LEARN AFTER YOU KNOW IT ALL
 THAT COUNTS.
 Job cpu time:  0 days  0 hours  0 minutes 36.3 seconds.
 File lengths (MBytes):  RWF=     37 Int=      0 D2E=      0 Chk=     10 Scr=      1
 Normal termination of Gaussian 03 at Tue Nov  3 19:08:47 2009.
