 Entering Gaussian System, Link 0=g03
 Input=gaussjob.com
 Output=gaussjob.log
 Initial command:
 /usr/local/g03/l1.exe /scratch/Gau-12806.inp -scrdir=/scratch/
 Entering Link 1 = /usr/local/g03/l1.exe PID=     12807.
  
 Copyright (c) 1988,1990,1992,1993,1995,1998,2003,2004, Gaussian, Inc.
                  All Rights Reserved.
  
 This is the Gaussian(R) 03 program.  It is based on the
 the Gaussian(R) 98 system (copyright 1998, Gaussian, Inc.),
 the Gaussian(R) 94 system (copyright 1995, Gaussian, Inc.),
 the Gaussian 92(TM) system (copyright 1992, Gaussian, Inc.),
 the Gaussian 90(TM) system (copyright 1990, Gaussian, Inc.),
 the Gaussian 88(TM) system (copyright 1988, Gaussian, Inc.),
 the Gaussian 86(TM) system (copyright 1986, Carnegie Mellon
 University), and the Gaussian 82(TM) system (copyright 1983,
 Carnegie Mellon University). Gaussian is a federally registered
 trademark of Gaussian, Inc.
  
 This software contains proprietary and confidential information,
 including trade secrets, belonging to Gaussian, Inc.
  
 This software is provided under written license and may be
 used, copied, transmitted, or stored only in accord with that
 written license.
  
 The following legend is applicable only to US Government
 contracts under FAR:
  
                    RESTRICTED RIGHTS LEGEND
  
 Use, reproduction and disclosure by the US Government is
 subject to restrictions as set forth in subparagraphs (a)
 and (c) of the Commercial Computer Software - Restricted
 Rights clause in FAR 52.227-19.
  
 Gaussian, Inc.
 340 Quinnipiac St., Bldg. 40, Wallingford CT 06492
  
  
 ---------------------------------------------------------------
 Warning -- This program may not be used in any manner that
 competes with the business of Gaussian, Inc. or will provide
 assistance to any competitor of Gaussian, Inc.  The licensee
 of this program is prohibited from giving any competitor of
 Gaussian, Inc. access to this program.  By using this program,
 the user acknowledges that Gaussian, Inc. is engaged in the
 business of creating and licensing software in the field of
 computational chemistry and represents and warrants to the
 licensee that it is not a competitor of Gaussian, Inc. and that
 it will not use this program in any manner prohibited above.
 ---------------------------------------------------------------
  

 Cite this work as:
 Gaussian 03, Revision D.01,
 M. J. Frisch, G. W. Trucks, H. B. Schlegel, G. E. Scuseria, 
 M. A. Robb, J. R. Cheeseman, J. A. Montgomery, Jr., T. Vreven, 
 K. N. Kudin, J. C. Burant, J. M. Millam, S. S. Iyengar, J. Tomasi, 
 V. Barone, B. Mennucci, M. Cossi, G. Scalmani, N. Rega, 
 G. A. Petersson, H. Nakatsuji, M. Hada, M. Ehara, K. Toyota, 
 R. Fukuda, J. Hasegawa, M. Ishida, T. Nakajima, Y. Honda, O. Kitao, 
 H. Nakai, M. Klene, X. Li, J. E. Knox, H. P. Hratchian, J. B. Cross, 
 V. Bakken, C. Adamo, J. Jaramillo, R. Gomperts, R. E. Stratmann, 
 O. Yazyev, A. J. Austin, R. Cammi, C. Pomelli, J. W. Ochterski, 
 P. Y. Ayala, K. Morokuma, G. A. Voth, P. Salvador, J. J. Dannenberg, 
 V. G. Zakrzewski, S. Dapprich, A. D. Daniels, M. C. Strain, 
 O. Farkas, D. K. Malick, A. D. Rabuck, K. Raghavachari, 
 J. B. Foresman, J. V. Ortiz, Q. Cui, A. G. Baboul, S. Clifford, 
 J. Cioslowski, B. B. Stefanov, G. Liu, A. Liashenko, P. Piskorz, 
 I. Komaromi, R. L. Martin, D. J. Fox, T. Keith, M. A. Al-Laham, 
 C. Y. Peng, A. Nanayakkara, M. Challacombe, P. M. W. Gill, 
 B. Johnson, W. Chen, M. W. Wong, C. Gonzalez, and J. A. Pople, 
 Gaussian, Inc., Wallingford CT, 2004.
 
 ******************************************
 Gaussian 03:  AM64L-G03RevD.01 13-Oct-2005
                27-Oct-2009 
 ******************************************
 ----------------
 # HF/3-21G force
 ----------------
 1/10=7,30=1,38=1/1,3;
 2/17=6,18=5,40=1/2;
 3/5=5,11=9,16=1,25=1,30=1/1,2,3;
 4//1;
 5/5=2,38=5/2;
 6/7=2,8=2,9=2,10=2,28=1/1;
 7/29=1/1,2,3,16;
 1/10=7,30=1/3;
 99//99;
 --------------------------------
 Generated by ASE Gaussian driver
 --------------------------------
 Symbolic Z-matrix:
 Charge =  0 Multiplicity = 1
 H                     0.10948   0.06368   0.10862 
 H                    -0.10948  -0.06368   0.79938 
 H                     3.23333   1.02507   1.4912 
 O                     3.89309   0.31666   1.40988 
 H                     4.25006   0.23711   2.30986 
 H                     0.96677   1.47113   1.58791 
 O                     1.7042    1.92559   2.01639 
 H                     1.41067   2.14088   2.91161 
 C                     1.78495  -2.27486   2.20033 
 H                     2.48849  -1.50662   1.90005 
 H                     1.3234   -2.70667   1.31949 
 H                     2.30645  -3.04483   2.75758 
 H                     1.02438  -1.83918   2.83833 
 

 GradGradGradGradGradGradGradGradGradGradGradGradGradGradGradGradGradGrad
 Berny optimization.
 Initialization pass.
 Trust Radius=3.00D-01 FncErr=1.00D-07 GrdErr=1.00D-07
 Number of steps in this run=   2 maximum allowed number of steps=   2.
 GradGradGradGradGradGradGradGradGradGradGradGradGradGradGradGradGradGrad

                          Input orientation:                          
 ---------------------------------------------------------------------
 Center     Atomic     Atomic              Coordinates (Angstroms)
 Number     Number      Type              X           Y           Z
 ---------------------------------------------------------------------
    1          1             0        0.109482    0.063680    0.108622
    2          1             0       -0.109482   -0.063680    0.799378
    3          1             0        3.233330    1.025066    1.491204
    4          8             0        3.893091    0.316662    1.409875
    5          1             0        4.250057    0.237107    2.309864
    6          1             0        0.966771    1.471127    1.587908
    7          8             0        1.704202    1.925594    2.016387
    8          1             0        1.410673    2.140878    2.911614
    9          6             0        1.784950   -2.274864    2.200327
   10          1             0        2.488493   -1.506616    1.900049
   11          1             0        1.323404   -2.706669    1.319494
   12          1             0        2.306452   -3.044829    2.757583
   13          1             0        1.024380   -1.839176    2.838334
 ---------------------------------------------------------------------
                    Distance matrix (angstroms):
                    1          2          3          4          5
     1  H    0.000000
     2  H    0.735738   0.000000
     3  H    3.548834   3.583069   0.000000
     4  O    4.009109   4.066689   0.971460   0.000000
     5  H    4.692537   4.623594   1.524736   0.971460   0.000000
     6  H    2.214529   2.033650   2.312058   3.150846   3.581060
     7  O    3.106352   2.954280   1.850676   2.783479   3.068957
     8  H    3.723521   3.410643   2.566063   3.427153   3.471102
     9  C    3.556854   3.231233   3.672901   3.432941   3.521186
    10  H    3.366709   3.169072   2.670459   2.353191   2.512295
    11  H    3.258013   3.051078   4.195611   3.968878   4.267545
    12  H    4.637510   4.307964   4.361979   3.953904   3.840462
    13  H    3.450975   2.931787   3.859806   3.862335   3.872366
                    6          7          8          9         10
     6  H    0.000000
     7  O    0.966404   0.000000
     8  H    1.548487   0.966404   0.000000
     9  C    3.882902   4.205259   4.488295   0.000000
    10  H    3.358575   3.522600   3.935628   1.084133   0.000000
    11  H    4.201573   4.699843   5.103055   1.084133   1.770481
    12  H    4.853529   5.061342   5.264760   1.084133   1.770481
    13  H    3.539067   3.912959   3.999427   1.084133   1.770481
                   11         12         13
    11  H    0.000000
    12  H    1.774495   0.000000
    13  H    1.774495   1.761769   0.000000
 Stoichiometry    CH10O2
 Framework group  C1[X(CH10O2)]
 Deg. of freedom    33
 Full point group                 C1
 Largest Abelian subgroup         C1      NOp   1
 Largest concise Abelian subgroup C1      NOp   1
                         Standard orientation:                         
 ---------------------------------------------------------------------
 Center     Atomic     Atomic              Coordinates (Angstroms)
 Number     Number      Type              X           Y           Z
 ---------------------------------------------------------------------
    1          1             0       -0.025144   -2.078251    1.817469
    2          1             0       -0.214445   -2.313215    1.146449
    3          1             0        1.125126    0.882538    0.234804
    4          8             0        0.485334    1.607870    0.325868
    5          1             0        0.382282    1.932670   -0.583868
    6          1             0        1.358775   -1.417635    0.219816
    7          8             0        1.850107   -0.744035   -0.268849
    8          1             0        1.981958   -1.093460   -1.160171
    9          6             0       -2.329361   -0.282545   -0.211627
   10          1             0       -1.483784    0.358809    0.009752
   11          1             0       -2.745196   -0.664845    0.713723
   12          1             0       -3.082546    0.284205   -0.747212
   13          1             0       -2.004383   -1.106228   -0.837152
 ---------------------------------------------------------------------
 Rotational constants (GHZ):      6.1868602      3.0638642      2.2492633
 Standard basis: 3-21G (6D, 7F)
 There are    47 symmetry adapted basis functions of A   symmetry.
 Integral buffers will be    131072 words long.
 Raffenetti 1 integral format.
 Two-electron integral symmetry is turned on.
    47 basis functions,    75 primitive gaussians,    47 cartesian basis functions
    16 alpha electrons       16 beta electrons
       nuclear repulsion energy        88.8492056364 Hartrees.
 NAtoms=   13 NActive=   13 NUniq=   13 SFac= 7.50D-01 NAtFMM=   80 NAOKFM=F Big=F
 One-electron integrals computed using PRISM.
 NBasis=    47 RedAO= T  NBF=    47
 NBsUse=    47 1.00D-06 NBFU=    47
 Harris functional with IExCor=  205 diagonalized for initial guess.
 ExpMin= 1.83D-01 ExpMax= 3.22D+02 ExpMxC= 3.22D+02 IAcc=1 IRadAn=         1 AccDes= 1.00D-06
 HarFok:  IExCor= 205 AccDes= 1.00D-06 IRadAn=         1 IDoV=1
 ScaDFX=  1.000000  1.000000  1.000000  1.000000
 Initial guess orbital symmetries:
       Occupied  (A) (A) (A) (A) (A) (A) (A) (A) (A) (A) (A) (A)
                 (A) (A) (A) (A)
       Virtual   (A) (A) (A) (A) (A) (A) (A) (A) (A) (A) (A) (A)
                 (A) (A) (A) (A) (A) (A) (A) (A) (A) (A) (A) (A)
                 (A) (A) (A) (A) (A) (A) (A)
 The electronic state of the initial guess is 1-A.
 Requested convergence on RMS density matrix=1.00D-08 within 128 cycles.
 Requested convergence on MAX density matrix=1.00D-06.
 Requested convergence on             energy=1.00D-06.
 No special actions if energy rises.
 Keep R1 integrals in memory in canonical form, NReq=     1517477.
 SCF Done:  E(RHF) =  -192.292729953     A.U. after   11 cycles
             Convg  =    0.8953D-08             -V/T =  2.0025
             S**2   =   0.0000

 **********************************************************************

            Population analysis using the SCF density.

 **********************************************************************

 Orbital symmetries:
       Occupied  (A) (A) (A) (A) (A) (A) (A) (A) (A) (A) (A) (A)
                 (A) (A) (A) (A)
       Virtual   (A) (A) (A) (A) (A) (A) (A) (A) (A) (A) (A) (A)
                 (A) (A) (A) (A) (A) (A) (A) (A) (A) (A) (A) (A)
                 (A) (A) (A) (A) (A) (A) (A)
 The electronic state is 1-A.
 Alpha  occ. eigenvalues --  -20.47242 -20.39879 -11.12934  -1.36367  -1.29188
 Alpha  occ. eigenvalues --   -0.93255  -0.72699  -0.65807  -0.61805  -0.57456
 Alpha  occ. eigenvalues --   -0.53454  -0.53326  -0.53152  -0.52830  -0.49327
 Alpha  occ. eigenvalues --   -0.44203
 Alpha virt. eigenvalues --    0.21800   0.25190   0.30248   0.32715   0.35264
 Alpha virt. eigenvalues --    0.35910   0.36556   0.42362   0.48350   0.87300
 Alpha virt. eigenvalues --    0.93493   0.93861   1.03772   1.17846   1.22699
 Alpha virt. eigenvalues --    1.26836   1.33461   1.34848   1.36779   1.37108
 Alpha virt. eigenvalues --    1.44575   1.53357   1.75636   1.85543   1.90074
 Alpha virt. eigenvalues --    1.90743   1.99816   2.07364   2.17507   3.08449
 Alpha virt. eigenvalues --    3.33070
          Condensed to atoms (all electrons):
              1          2          3          4          5          6
     1  H    0.571685   0.400807   0.000056   0.000000  -0.000001   0.001252
     2  H    0.400807   0.615332   0.000005  -0.000011   0.000001   0.003613
     3  H    0.000056   0.000005   0.351001   0.247444  -0.039665  -0.003784
     4  O    0.000000  -0.000011   0.247444   8.236134   0.258487   0.000789
     5  H   -0.000001   0.000001  -0.039665   0.258487   0.437526   0.000000
     6  H    0.001252   0.003613  -0.003784   0.000789   0.000000   0.376170
     7  O   -0.000976  -0.000858   0.045433  -0.007329   0.000588   0.260468
     8  H    0.000003   0.000168  -0.001894   0.000428   0.000022  -0.034581
     9  C   -0.000346   0.000073   0.000540  -0.007427   0.000894   0.000008
    10  H    0.000035  -0.000063  -0.001578   0.035549  -0.002480   0.000153
    11  H    0.000041   0.000048  -0.000002   0.000023  -0.000001  -0.000006
    12  H    0.000008   0.000006  -0.000002   0.000025  -0.000002   0.000000
    13  H   -0.000126   0.000329  -0.000004   0.000016  -0.000002   0.000022
              7          8          9         10         11         12
     1  H   -0.000976   0.000003  -0.000346   0.000035   0.000041   0.000008
     2  H   -0.000858   0.000168   0.000073  -0.000063   0.000048   0.000006
     3  H    0.045433  -0.001894   0.000540  -0.001578  -0.000002  -0.000002
     4  O   -0.007329   0.000428  -0.007427   0.035549   0.000023   0.000025
     5  H    0.000588   0.000022   0.000894  -0.002480  -0.000001  -0.000002
     6  H    0.260468  -0.034581   0.000008   0.000153  -0.000006   0.000000
     7  O    8.171661   0.263564  -0.000043   0.000154   0.000000   0.000000
     8  H    0.263564   0.387349   0.000005   0.000000   0.000000   0.000000
     9  C   -0.000043   0.000005   5.414590   0.320469   0.370207   0.368382
    10  H    0.000154   0.000000   0.320469   0.471340  -0.021134  -0.021276
    11  H    0.000000   0.000000   0.370207  -0.021134   0.510426  -0.025316
    12  H    0.000000   0.000000   0.368382  -0.021276  -0.025316   0.516553
    13  H    0.000017   0.000006   0.364384  -0.023877  -0.027305  -0.028478
             13
     1  H   -0.000126
     2  H    0.000329
     3  H   -0.000004
     4  O    0.000016
     5  H   -0.000002
     6  H    0.000022
     7  O    0.000017
     8  H    0.000006
     9  C    0.364384
    10  H   -0.023877
    11  H   -0.027305
    12  H   -0.028478
    13  H    0.548325
 Mulliken atomic charges:
              1
     1  H    0.027562
     2  H   -0.019447
     3  H    0.402452
     4  O   -0.764129
     5  H    0.344633
     6  H    0.395896
     7  O   -0.732679
     8  H    0.384930
     9  C   -0.831736
    10  H    0.242707
    11  H    0.193018
    12  H    0.190099
    13  H    0.166695
 Sum of Mulliken charges=   0.00000
 Atomic charges with hydrogens summed into heavy atoms:
              1
     1  H    0.000000
     2  H    0.000000
     3  H    0.000000
     4  O   -0.017045
     5  H    0.000000
     6  H    0.000000
     7  O    0.056262
     8  H    0.000000
     9  C   -0.039218
    10  H    0.000000
    11  H    0.000000
    12  H    0.000000
    13  H    0.000000
 Sum of Mulliken charges=   0.00000
 Electronic spatial extent (au):  <R**2>=   574.0208
 Charge=     0.0000 electrons
 Dipole moment (field-independent basis, Debye):
    X=     1.0785    Y=    -3.2915    Z=    -2.6900  Tot=     4.3855
 Quadrupole moment (field-independent basis, Debye-Ang):
   XX=   -24.6313   YY=   -21.1502   ZZ=   -20.0279
   XY=    -3.1957   XZ=    -2.9948   YZ=    -3.0411
 Traceless Quadrupole moment (field-independent basis, Debye-Ang):
   XX=    -2.6948   YY=     0.7863   ZZ=     1.9086
   XY=    -3.1957   XZ=    -2.9948   YZ=    -3.0411
 Octapole moment (field-independent basis, Debye-Ang**2):
  XXX=    13.8923  YYY=    -5.0528  ZZZ=    -3.6204  XYY=    10.7416
  XXY=     0.0547  XXZ=    -5.5819  XZZ=    10.3510  YZZ=    -2.2019
  YYZ=   -10.1983  XYZ=     2.0367
 Hexadecapole moment (field-independent basis, Debye-Ang**3):
 XXXX=  -463.2635 YYYY=  -205.0718 ZZZZ=   -54.7139 XXXY=   -14.1582
 XXXZ=   -16.4863 YYYX=   -18.8254 YYYZ=    -6.8298 ZZZX=   -10.5213
 ZZZY=     3.6885 XXYY=  -101.6463 XXZZ=   -72.6894 YYZZ=   -40.6626
 XXYZ=     5.1572 YYXZ=    -7.4460 ZZXY=    -7.7028
 N-N= 8.884920563643D+01 E-N=-6.316333218309D+02  KE= 1.918079213216D+02
 ***** Axes restored to original set *****
 -------------------------------------------------------------------
 Center     Atomic                   Forces (Hartrees/Bohr)
 Number     Number              X              Y              Z
 -------------------------------------------------------------------
    1          1          -0.000731297   -0.000235843    0.000109611
    2          1          -0.001226131   -0.001289378   -0.001751138
    3          1          -0.006137083    0.001257294   -0.004610429
    4          8           0.000794095    0.001890095    0.010672050
    5          1           0.004337488   -0.004723845   -0.004460607
    6          1           0.003469695    0.000744131   -0.003742770
    7          8          -0.005828931   -0.000946429    0.002135975
    8          1           0.004456726    0.002296870    0.001891192
    9          6           0.003752044    0.002992123    0.000640818
   10          1          -0.000638118   -0.000280807   -0.000993067
   11          1           0.000007737   -0.000332075    0.001441233
   12          1          -0.000513584   -0.000772185   -0.001122715
   13          1          -0.001742641   -0.000599950   -0.000210154
 -------------------------------------------------------------------
 Cartesian Forces:  Max     0.010672050 RMS     0.003096189
 ------------------------------------------------------------------------
           Internal Coordinate Forces (Hartree/Bohr or radian)
 Cent Atom N1     Length/X     N2     Alpha/Y      N3      Beta/Z       J
 ------------------------------------------------------------------------
   1  H        -0.000731(   1)     -0.000236(  14)      0.000110(  27)
   2  H        -0.001226(   2)     -0.001289(  15)     -0.001751(  28)
   3  H        -0.006137(   3)      0.001257(  16)     -0.004610(  29)
   4  O         0.000794(   4)      0.001890(  17)      0.010672(  30)
   5  H         0.004337(   5)     -0.004724(  18)     -0.004461(  31)
   6  H         0.003470(   6)      0.000744(  19)     -0.003743(  32)
   7  O        -0.005829(   7)     -0.000946(  20)      0.002136(  33)
   8  H         0.004457(   8)      0.002297(  21)      0.001891(  34)
   9  C         0.003752(   9)      0.002992(  22)      0.000641(  35)
  10  H        -0.000638(  10)     -0.000281(  23)     -0.000993(  36)
  11  H         0.000008(  11)     -0.000332(  24)      0.001441(  37)
  12  H        -0.000514(  12)     -0.000772(  25)     -0.001123(  38)
  13  H        -0.001743(  13)     -0.000600(  26)     -0.000210(  39)
 ------------------------------------------------------------------------
 Internal  Forces:  Max     0.010672050 RMS     0.003096189

 GradGradGradGradGradGradGradGradGradGradGradGradGradGradGradGradGradGrad
 Berny optimization.
 Search for a local minimum.
 Step number   1 out of a maximum of   2
 All quantities printed in internal units (Hartrees-Bohrs-Radians)
 Second derivative matrix not updated -- first step.
     Eigenvalues ---    0.00000   0.00000   0.00000   0.00000   0.00000
     Eigenvalues ---    0.00000   0.00000   0.00000   0.00000   0.00000
     Eigenvalues ---    0.00000   0.00000   0.00000   0.00000   0.00000
     Eigenvalues ---    0.00000   0.00000   0.11408   0.11462   0.13776
     Eigenvalues ---    0.13876   0.14050   0.14296   0.15182   0.35500
     Eigenvalues ---    0.79442   0.83968   0.84856   0.86607   0.90356
     Eigenvalues ---    0.93382   1.07127   1.09365
 Eigenvalue   1 out of range, new value =    0.000100 Eigenvector:
                           1
           X1          -0.05757
           Y1           0.01551
           Z1          -0.04816
           X2           0.02183
           Y2          -0.08333
           Z2          -0.04122
           X3          -0.06576
           Y3           0.09220
           Z3           0.01486
           X4          -0.11441
           Y4           0.05319
           Z4          -0.03999
           X5          -0.04299
           Y5           0.03333
           Z5          -0.07007
           X6           0.65139
           Y6          -0.54749
           Z6          -0.11480
           X7           0.12545
           Y7           0.10390
           Z7           0.09947
           X8          -0.37520
           Y8          -0.02957
           Z8          -0.03258
           X9          -0.02541
           Y9           0.01177
           Z9           0.01919
           X10         -0.02541
           Y10          0.01177
           Z10          0.01919
           X11         -0.09118
           Y11          0.07362
           Z11          0.02334
           X12         -0.00935
           Y12         -0.03298
           Z12         -0.05767
           X13          0.02524
           Y13         -0.00621
           Z13          0.09186
 Eigenvalue   2 out of range, new value =    0.000100 Eigenvector:
                           1
           X1           0.40185
           Y1          -0.18872
           Z1           0.57566
           X2          -0.27073
           Y2          -0.04913
           Z2           0.38819
           X3           0.04388
           Y3           0.08216
           Z3           0.09341
           X4           0.02368
           Y4           0.06888
           Z4           0.04525
           X5          -0.00707
           Y5          -0.03003
           Z5           0.04871
           X6           0.06077
           Y6          -0.04533
           Z6          -0.16179
           X7           0.04553
           Y7          -0.09429
           Z7          -0.08363
           X8          -0.08998
           Y8           0.06240
           Z8          -0.16574
           X9          -0.05164
           Y9           0.03709
           Z9          -0.10388
           X10         -0.05164
           Y10          0.03709
           Z10         -0.10388
           X11          0.04536
           Y11         -0.05413
           Z11         -0.10999
           X12         -0.07533
           Y12          0.10310
           Z12          0.00949
           X13         -0.12635
           Y13          0.06362
           Z13         -0.21105
 Eigenvalue   3 out of range, new value =    0.000100 Eigenvector:
                           1
           X1          -0.03400
           Y1           0.01124
           Z1           0.01580
           X2           0.00509
           Y2          -0.01853
           Z2           0.02270
           X3           0.31900
           Y3           0.59438
           Z3           0.04407
           X4          -0.47800
           Y4          -0.16391
           Z4           0.18362
           X5          -0.14233
           Y5           0.02295
           Z5           0.06700
           X6           0.01925
           Y6          -0.00216
           Z6          -0.00177
           X7           0.11243
           Y7          -0.01818
           Z7          -0.14516
           X8           0.30286
           Y8          -0.04099
           Z8          -0.07723
           X9           0.08726
           Y9          -0.00785
           Z9          -0.02779
           X10          0.08726
           Y10         -0.00785
           Z10         -0.02779
           X11         -0.00666
           Y11          0.08047
           Z11         -0.02188
           X12          0.11019
           Y12         -0.07175
           Z12         -0.13755
           X13          0.15958
           Y13         -0.03353
           Z13          0.07596
 Eigenvalue   4 out of range, new value =    0.000100 Eigenvector:
                           1
           X1           0.06972
           Y1          -0.08167
           Z1           0.14545
           X2          -0.03466
           Y2          -0.09195
           Z2           0.11047
           X3          -0.18302
           Y3          -0.31291
           Z3          -0.21472
           X4           0.10834
           Y4          -0.08087
           Z4           0.12776
           X5          -0.26085
           Y5           0.11238
           Z5           0.29127
           X6          -0.02688
           Y6          -0.03828
           Z6           0.06214
           X7          -0.05546
           Y7           0.18625
           Z7          -0.12681
           X8           0.08980
           Y8           0.14327
           Z8          -0.06884
           X9           0.02981
           Y9          -0.00389
           Z9          -0.05089
           X10          0.02981
           Y10         -0.00389
           Z10         -0.05089
           X11         -0.25417
           Y11          0.26316
           Z11         -0.03300
           X12          0.09916
           Y12         -0.19711
           Z12         -0.38276
           X13          0.24850
           Y13         -0.08154
           Z13          0.26284
 Eigenvalue   5 out of range, new value =    0.000100 Eigenvector:
                           1
           X1           0.09336
           Y1          -0.08500
           Z1          -0.01675
           X2           0.23258
           Y2          -0.00797
           Z2           0.04158
           X3           0.01580
           Y3          -0.02608
           Z3           0.37773
           X4          -0.16158
           Y4          -0.14878
           Z4           0.00762
           X5           0.40769
           Y5          -0.13859
           Z5          -0.21726
           X6          -0.06876
           Y6           0.16758
           Z6          -0.02986
           X7          -0.06241
           Y7           0.09981
           Z7           0.03110
           X8          -0.27545
           Y8           0.52356
           Z8          -0.14066
           X9           0.03516
           Y9          -0.04551
           Z9          -0.01926
           X10          0.03516
           Y10         -0.04551
           Z10         -0.01926
           X11         -0.07313
           Y11          0.05632
           Z11         -0.01244
           X12          0.06160
           Y12         -0.11919
           Z12         -0.14581
           X13          0.11855
           Y13         -0.07512
           Z13          0.10037
 Eigenvalue   6 out of range, new value =    0.000100 Eigenvector:
                           1
           X1           0.40900
           Y1           0.32278
           Z1           0.12247
           X2          -0.01904
           Y2          -0.24055
           Z2          -0.11708
           X3          -0.10908
           Y3           0.01230
           Z3           0.20136
           X4          -0.03512
           Y4           0.10933
           Z4          -0.04392
           X5           0.22019
           Y5           0.07387
           Z5          -0.14832
           X6           0.02553
           Y6           0.03515
           Z6          -0.03797
           X7          -0.08661
           Y7           0.30873
           Z7          -0.13514
           X8           0.18652
           Y8          -0.38732
           Z8           0.12180
           X9          -0.05732
           Y9          -0.15472
           Z9           0.05648
           X10         -0.05732
           Y10         -0.15472
           Z10          0.05648
           X11         -0.11918
           Y11         -0.09655
           Z11          0.06037
           X12         -0.04221
           Y12         -0.19681
           Z12         -0.01581
           X13         -0.00968
           Y13         -0.17163
           Z13          0.12482
 Eigenvalue   7 out of range, new value =    0.000100 Eigenvector:
                           1
           X1          -0.16694
           Y1          -0.38855
           Z1          -0.08749
           X2           0.12621
           Y2           0.31160
           Z2           0.13452
           X3          -0.13317
           Y3           0.12424
           Z3           0.33800
           X4           0.15847
           Y4           0.43884
           Z4          -0.03638
           X5          -0.05043
           Y5          -0.12353
           Z5          -0.00323
           X6           0.00313
           Y6           0.01530
           Z6          -0.11778
           X7           0.10651
           Y7          -0.16827
           Z7          -0.10100
           X8           0.16994
           Y8          -0.17065
           Z8          -0.07964
           X9          -0.10851
           Y9          -0.08251
           Z9           0.03168
           X10         -0.10851
           Y10         -0.08251
           Z10          0.03168
           X11         -0.22125
           Y11          0.02350
           Z11          0.03878
           X12         -0.08098
           Y12         -0.15922
           Z12         -0.10007
           X13         -0.02170
           Y13         -0.11334
           Z13          0.15622
 Eigenvalue   8 out of range, new value =    0.000100 Eigenvector:
                           1
           X1          -0.01081
           Y1           0.18683
           Z1           0.03099
           X2          -0.12000
           Y2           0.04040
           Z2          -0.03062
           X3           0.08439
           Y3           0.11523
           Z3          -0.23442
           X4           0.03832
           Y4           0.04933
           Z4          -0.03418
           X5          -0.10153
           Y5           0.15027
           Z5           0.03022
           X6           0.05470
           Y6           0.52266
           Z6          -0.48511
           X7           0.12223
           Y7          -0.18908
           Z7           0.15358
           X8          -0.38191
           Y8          -0.06427
           Z8          -0.04173
           X9           0.00308
           Y9          -0.08601
           Z9           0.06094
           X10          0.00308
           Y10         -0.08601
           Z10          0.06094
           X11         -0.08045
           Y11         -0.00746
           Z11          0.06620
           X12          0.02348
           Y12         -0.14284
           Z12         -0.03668
           X13          0.06740
           Y13         -0.10885
           Z13          0.15321
 Eigenvalue   9 out of range, new value =    0.000100 Eigenvector:
                           1
           X1          -0.07940
           Y1           0.50711
           Z1           0.04073
           X2          -0.21360
           Y2          -0.28963
           Z2          -0.14871
           X3          -0.09584
           Y3           0.00358
           Z3           0.26649
           X4           0.09063
           Y4           0.21138
           Z4          -0.03096
           X5          -0.16313
           Y5          -0.33819
           Z5           0.02111
           X6          -0.11211
           Y6          -0.11306
           Z6           0.02134
           X7           0.08805
           Y7          -0.37131
           Z7          -0.04923
           X8           0.06006
           Y8           0.20378
           Z8          -0.19670
           X9           0.01518
           Y9           0.07434
           Z9           0.03451
           X10          0.01518
           Y10          0.07434
           Z10          0.03451
           X11         -0.03699
           Y11          0.12340
           Z11          0.03780
           X12          0.02792
           Y12          0.03885
           Z12         -0.02646
           X13          0.05535
           Y13          0.06008
           Z13          0.09214
 Quadratic step=4.290D+01 exceeds max=3.000D-01 adjusted using Lamda=-1.491D-02.
 Angle between NR and scaled steps=  17.74 degrees.
 Angle between quadratic step and forces=  62.85 degrees.
 Linear search not attempted -- first point.
 TrRot=  0.005194  0.009455  0.001190  0.386753 -0.001558 -0.386895
 Variable       Old X    -DE/DX   Delta X   Delta X   Delta X     New X
                                 (Linear)    (Quad)   (Total)
    X1        0.20689  -0.00073   0.00000  -0.03820  -0.03323   0.17366
    Y1        0.12034  -0.00024   0.00000  -0.01463  -0.00530   0.11504
    Z1        0.20527   0.00011   0.00000  -0.03718  -0.03568   0.16959
    X2       -0.20689  -0.00123   0.00000  -0.09746  -0.09437  -0.30126
    Y2       -0.12034  -0.00129   0.00000  -0.10051  -0.09186  -0.21219
    Z2        1.51061  -0.00175   0.00000  -0.07366  -0.07304   1.43756
    X3        6.11011  -0.00614   0.00000  -0.13354  -0.13224   5.97787
    Y3        1.93709   0.00126   0.00000  -0.08655  -0.07964   1.85745
    Z3        2.81797  -0.00461   0.00000   0.05975   0.07064   2.88861
    X4        7.35688   0.00079   0.00000  -0.03811  -0.03674   7.32014
    Y4        0.59841   0.00189   0.00000  -0.00570   0.00112   0.59953
    Z4        2.66428   0.01067   0.00000   0.03593   0.04803   2.71230
    X5        8.03144   0.00434   0.00000   0.10094   0.09993   8.13137
    Y5        0.44807  -0.00472   0.00000  -0.03368  -0.02794   0.42013
    Z5        4.36501  -0.00446   0.00000  -0.02675  -0.01359   4.35142
    X6        1.82693   0.00347   0.00000   0.04833   0.04965   1.87659
    Y6        2.78003   0.00074   0.00000   0.05025   0.05770   2.83773
    Z6        3.00071  -0.00374   0.00000  -0.04031  -0.03476   2.96596
    X7        3.22047  -0.00583   0.00000   0.02281   0.02301   3.24349
    Y7        3.63885  -0.00095   0.00000   0.04354   0.05028   3.68913
    Z7        3.81042   0.00214   0.00000   0.00815   0.01618   3.82660
    X8        2.66579   0.00446   0.00000   0.06610   0.06390   2.72968
    Y8        4.04567   0.00230   0.00000   0.02140   0.02721   4.07289
    Z8        5.50215   0.00189   0.00000   0.02898   0.03649   5.53864
    X9        3.37307   0.00375   0.00000   0.02066   0.01925   3.39231
    Y9       -4.29887   0.00299   0.00000   0.01444   0.02097  -4.27790
    Z9        4.15801   0.00064   0.00000  -0.00241   0.00115   4.15916
   X10        4.70257  -0.00064   0.00000  -0.00147  -0.00182   4.70075
   Y10       -2.84709  -0.00028   0.00000   0.02249   0.02918  -2.81792
   Z10        3.59057  -0.00099   0.00000  -0.02657  -0.02026   3.57031
   X11        2.50087   0.00001   0.00000   0.01162   0.01246   2.51333
   Y11       -5.11486  -0.00033   0.00000  -0.00505   0.00257  -5.11229
   Z11        2.49348   0.00144   0.00000   0.01456   0.01636   2.50985
   X12        4.35856  -0.00051   0.00000   0.03137   0.02825   4.38681
   Y12       -5.75389  -0.00077   0.00000   0.01232   0.01810  -5.73579
   Z12        5.21108  -0.00112   0.00000  -0.01646  -0.01232   5.19876
   X13        1.93580  -0.00174   0.00000   0.00500   0.00196   1.93776
   Y13       -3.47554  -0.00060   0.00000  -0.00842  -0.00240  -3.47793
   Z13        5.36367  -0.00021   0.00000  -0.00114   0.00080   5.36447
         Item               Value     Threshold  Converged?
 Maximum Force            0.010672     0.000450     NO 
 RMS     Force            0.003096     0.000300     NO 
 Maximum Displacement     0.132240     0.001800     NO 
 RMS     Displacement     0.047713     0.001200     NO 
 Predicted change in Energy=-2.000997D-03
 GradGradGradGradGradGradGradGradGradGradGradGradGradGradGradGradGradGrad

 1\1\GINC-OUTBACK\Force\RHF\3-21G\C1H10O2\HUGH\27-Oct-2009\0\\# HF/3-21
 G force\\Generated by ASE Gaussian driver\\0,1\H,0.1094821566,0.063679
 5985,0.1086218014\H,-0.1094821659,-0.0636795925,0.7993782441\H,3.23333
 02234,1.0250662682,1.4912035367\O,3.8930907065,0.3166623421,1.40987502
 03\H,4.2500567366,0.2371066344,2.30986418\H,0.9667713529,1.4711273127,
 1.5879077369\O,1.704201542,1.925594073,2.0163866165\H,1.4106727588,2.1
 408778869,2.9116135169\C,1.7849498684,-2.2748642274,2.2003265177\H,2.4
 884928224,-1.5066160012,1.9000488397\H,1.323404264,-2.7066688956,1.319
 4944719\H,2.3064522431,-3.0448285599,2.7575831095\H,1.0243801235,-1.83
 91757993,2.8383343281\\Version=AM64L-G03RevD.01\State=1-A\HF=-192.2927
 3\RMSD=8.953e-09\RMSF=3.096e-03\Thermal=0.\Dipole=-1.1999705,0.6032383
 ,1.0831315\PG=C01 [X(C1H10O2)]\\@


 THERE IS AN OLD, OLD RECIPE IN MAINE FOR STEWING COOT. PLACE THE
 BIRD IN A KETTLE OF WATER WITH A RED BUILDING BRICK FREE OF MORTAR AND
 BLEMISHES. PARBOIL THE COOT AND BRICK TOGETHER FOR THREE HOURS.
 POUR OFF THE WATER, REFILL THE KETTLE, AND AGAIN PARBOIL FOR THREE HOURS.
 ONCE AGAIN POUR OFF THE WATER, FOR THE LAST TIME ADD FRESH WATER,
 AND LET THE COOT AND BRICK SIMMER TOGETHER OVERNIGHT. IN THE MORNING,
 THROW AWAY THE COOT AND EAT THE BRICK.
 Job cpu time:  0 days  0 hours  0 minutes  5.6 seconds.
 File lengths (MBytes):  RWF=     13 Int=      0 D2E=      0 Chk=      6 Scr=      1
 Normal termination of Gaussian 03 at Tue Oct 27 18:31:37 2009.
