3
Bead 0: Energy = -1.00336898873
H 0.000000	0.000000	0.000000
O 0.000000	0.000000	0.000000
H nan	nan	nan
3
Bead 1: Energy = -0.89177598172
H 0.000000	0.000000	0.000000
O 0.157877	0.000000	0.000000
H 0.000002	0.000000	0.000747
3
Bead 2: Energy = -0.55146733057
H 0.000000	0.000000	0.000000
O 0.255337	0.000000	0.000000
H 0.000027	0.000000	0.003693
3
Bead 3: Energy = -0.411073241784
H 0.000000	0.000000	0.000000
O 0.565354	0.000000	0.000000
H 0.000143	0.000000	0.012731
3
Bead 4: Energy = -0.45460405498
H 0.000000	0.000000	0.000000
O 0.699293	0.000000	0.000000
H 0.000358	0.000000	0.022380
3
Bead 5: Energy = -0.261099000016
H 0.000000	0.000000	0.000000
O 1.101685	0.000000	0.000000
H 0.000815	0.000000	0.042360
3
Bead 6: Energy = -0.0739304699883
H 0.000000	0.000000	0.000000
O 1.603216	0.000000	0.000000
H 0.001504	0.000000	0.069439
3
Bead 7: Energy = -0.237669528044
H 0.000000	0.000000	0.000000
O 2.149774	0.000000	0.000000
H 0.002104	0.000000	0.095096
3
Bead 8: Energy = -0.628303660256
H 0.000000	0.000000	0.000000
O 2.598000	0.000000	0.000000
H 0.003276	0.000000	0.130436
3
Bead 9: Energy = -0.820000895403
H 0.000000	0.000000	0.000000
O 3.000000	0.000000	0.000000
H 0.004111	0.000000	0.157008
