3
Bead 0: Energy = -1.00336898873
H 0.000000	0.000000	0.000000
O 0.000000	0.000000	0.000000
H nan	nan	nan
3
Bead 1: Energy = -0.854026766378
H 0.000000	0.000000	0.000000
O 0.222402	0.000000	0.000000
H 0.000006	0.000000	0.001584
3
Bead 2: Energy = -0.527853482235
H 0.000000	0.000000	0.000000
O 0.389883	0.000000	0.000000
H 0.000047	0.000000	0.006033
3
Bead 3: Energy = -0.412089217477
H 0.000000	0.000000	0.000000
O 0.518647	0.000000	0.000000
H 0.000150	0.000000	0.012469
3
Bead 4: Energy = -0.405804621045
H 0.000000	0.000000	0.000000
O 0.784455	0.000000	0.000000
H 0.000384	0.000000	0.024552
3
Bead 5: Energy = -0.188622661092
H 0.000000	0.000000	0.000000
O 1.192297	0.000000	0.000000
H 0.000801	0.000000	0.043703
3
Bead 6: Energy = -0.0701424855663
H 0.000000	0.000000	0.000000
O 1.629644	0.000000	0.000000
H 0.001391	0.000000	0.067325
3
Bead 7: Energy = -0.257658659266
H 0.000000	0.000000	0.000000
O 2.065144	0.000000	0.000000
H 0.002127	0.000000	0.093694
3
Bead 8: Energy = -0.634104987343
H 0.000000	0.000000	0.000000
O 2.546151	0.000000	0.000000
H 0.002998	0.000000	0.123526
3
Bead 9: Energy = -0.820000895403
H 0.000000	0.000000	0.000000
O 3.000000	0.000000	0.000000
H 0.004111	0.000000	0.157008
