5
Bead 0: Energy = -20.988275
Pd	0.075997	0.043743	0.448944
Pd	1.397994	2.333126	0.450156
Pd	2.719832	0.044589	0.448800
Pd	4.194287	2.420661	1.453119
H	1.397937	0.807336	1.501050
5
Bead 1: Energy = -23.705625
Pd	0.231478	-0.344570	0.359944
Pd	0.969190	2.306275	0.541865
Pd	2.956203	0.388196	0.484745
Pd	4.177512	2.473633	1.533941
H	1.459422	0.831940	1.379993
5
Bead 2: Energy = -24.015023
Pd	0.194186	-0.535074	0.129098
Pd	0.887374	2.125232	0.601189
Pd	3.171015	0.623486	0.441797
Pd	4.284669	2.858804	1.586498
H	1.769570	0.981003	1.437361
5
Bead 3: Energy = -24.199295
Pd	-0.085513	-0.528802	0.008141
Pd	1.004741	1.989071	0.833371
Pd	3.293200	0.674662	0.406920
Pd	4.496888	3.198718	1.268829
H	1.995624	1.028660	1.597549
5
Bead 4: Energy = -23.649187
Pd	-0.262638	-0.384499	-0.011535
Pd	1.079075	2.067283	0.946598
Pd	3.369187	0.588856	0.673539
Pd	4.608940	3.165129	0.781599
H	2.060607	1.042085	1.693994
5
Bead 5: Energy = -23.81853
Pd	-0.176727	-0.300842	0.147984
Pd	1.116529	2.186432	0.994018
Pd	3.371496	0.529385	0.859883
Pd	4.650214	3.110306	0.288507
H	2.141661	1.145965	1.743264
5
Bead 6: Energy = -24.107479
Pd	-0.023705	-0.358546	0.378770
Pd	1.151335	2.209801	1.039229
Pd	3.394465	0.683468	0.770636
Pd	4.697691	3.179067	-0.050768
H	2.336484	1.308957	1.803455
5
Bead 7: Energy = -24.246421
Pd	0.048287	-0.365968	0.403749
Pd	1.221519	2.223350	1.036406
Pd	3.536680	0.886093	0.690154
Pd	4.894430	3.250731	-0.153603
H	2.532003	1.553468	1.826722
