3
Bead 0: Energy = -1.00336898873
H 0.000000	0.000000	0.000000
O 0.000000	0.000000	0.000000
H nan	nan	nan
3
Bead 1: Energy = -0.874302102702
H 0.000000	0.000000	0.000000
O 0.104536	0.000000	0.000000
H 0.000003	0.000000	0.000759
3
Bead 2: Energy = -0.513753534195
H 0.000000	0.000000	0.000000
O 0.398424	0.000000	0.000000
H 0.000048	0.000000	0.006154
3
Bead 3: Energy = -0.414134073204
H 0.000000	0.000000	0.000000
O 0.533005	0.000000	0.000000
H 0.000155	0.000000	0.012868
3
Bead 4: Energy = -0.468996386051
H 0.000000	0.000000	0.000000
O 0.610881	0.000000	0.000000
H 0.000339	0.000000	0.020339
3
Bead 5: Energy = -0.273175503703
H 0.000000	0.000000	0.000000
O 0.977345	0.000000	0.000000
H 0.000764	0.000000	0.038639
3
Bead 6: Energy = -0.0761465444924
H 0.000000	0.000000	0.000000
O 1.497754	0.000000	0.000000
H 0.001387	0.000000	0.064445
3
Bead 7: Energy = -0.261564124767
H 0.000000	0.000000	0.000000
O 2.011466	0.000000	0.000000
H 0.002018	0.000000	0.090084
3
Bead 8: Energy = -0.653783427282
H 0.000000	0.000000	0.000000
O 2.507306	0.000000	0.000000
H 0.002943	0.000000	0.121451
3
Bead 9: Energy = -0.820000895403
H 0.000000	0.000000	0.000000
O 3.000000	0.000000	0.000000
H 0.004111	0.000000	0.157008
