3
Bead 0: Energy = -1.00336898873
H 0.000000	0.000000	0.000000
O 0.000000	0.000000	0.000000
H nan	nan	nan
3
Bead 1: Energy = -0.5844661161
H 0.000000	0.000000	0.000000
O 0.204491	0.000000	0.000000
H 0.000009	0.000000	0.001873
3
Bead 2: Energy = -0.422716465187
H 0.000000	0.000000	0.000000
O 0.540902	0.000000	0.000000
H 0.000080	0.000000	0.009288
3
Bead 3: Energy = -0.885935988331
H 0.000000	0.000000	0.000000
O 0.535556	0.000000	0.000000
H 0.000182	0.000000	0.013977
3
Bead 4: Energy = -0.482788938405
H 0.000000	0.000000	0.000000
O 0.651499	0.000000	0.000000
H 0.000393	0.000000	0.022614
3
Bead 5: Energy = -0.461452944434
H 0.000000	0.000000	0.000000
O 1.017841	0.000000	0.000000
H 0.000895	0.000000	0.042682
3
Bead 6: Energy = -0.28209040073
H 0.000000	0.000000	0.000000
O 1.535451	0.000000	0.000000
H 0.001720	0.000000	0.072658
3
Bead 7: Energy = -0.0714958282065
H 0.000000	0.000000	0.000000
O 2.060875	0.000000	0.000000
H 0.001957	0.000000	0.089791
3
Bead 8: Energy = -0.381506319861
H 0.000000	0.000000	0.000000
O 2.538190	0.000000	0.000000
H 0.002845	0.000000	0.120148
3
Bead 9: Energy = -0.820000895403
H 0.000000	0.000000	0.000000
O 3.000000	0.000000	0.000000
H 0.004111	0.000000	0.157008
