5
Bead 0: Energy = 0.0
Pd	0.075997	0.043743	0.448944
Pd	1.397994	2.333126	0.450156
Pd	2.719832	0.044589	0.448800
Pd	4.194287	2.420661	1.453119
H	1.397937	0.807336	1.501050
5
Bead 1: Energy = 0.0
Pd	0.072038	-0.014787	0.442487
Pd	1.372783	2.317443	0.533906
Pd	2.836524	0.164804	0.483279
Pd	4.294307	2.539242	1.223587
H	1.559946	0.913926	1.547575
5
Bead 2: Energy = 0.0
Pd	0.068080	-0.073317	0.436031
Pd	1.347573	2.301761	0.617656
Pd	2.953217	0.285019	0.517758
Pd	4.394328	2.657824	0.994055
H	1.721956	1.020516	1.594099
5
Bead 3: Energy = 0.0
Pd	0.064121	-0.131847	0.429574
Pd	1.322362	2.286079	0.701406
Pd	3.069910	0.405234	0.552237
Pd	4.494348	2.776405	0.764524
H	1.883965	1.127107	1.640624
5
Bead 4: Energy = 0.0
Pd	0.060163	-0.190377	0.423118
Pd	1.297151	2.270397	0.785156
Pd	3.186602	0.525448	0.586717
Pd	4.594369	2.894986	0.534992
H	2.045974	1.233697	1.687148
5
Bead 5: Energy = 0.0
Pd	0.056204	-0.248907	0.416661
Pd	1.271941	2.254715	0.868906
Pd	3.303295	0.645663	0.621196
Pd	4.694389	3.013568	0.305461
H	2.207984	1.340287	1.733673
5
Bead 6: Energy = 0.0
Pd	0.052246	-0.307438	0.410205
Pd	1.246730	2.239032	0.952656
Pd	3.419988	0.765878	0.655675
Pd	4.794409	3.132149	0.075929
H	2.369993	1.446878	1.780197
5
Bead 7: Energy = 0.0
Pd	0.048287	-0.365968	0.403749
Pd	1.221519	2.223350	1.036406
Pd	3.536680	0.886093	0.690154
Pd	4.894430	3.250731	-0.153603
H	2.532003	1.553468	1.826722
