14
Bead 0: Energy = 0.0
C 0.000000	0.000000	0.000000
C 1.541527	0.000000	0.000000
C 2.147866	0.000000	1.419070
C 1.879910	-1.306477	2.192078
H 1.748439	0.841594	1.977148
H 3.220734	0.147623	1.342899
H 1.905515	-0.867180	-0.542982
H 1.891363	0.879586	-0.531559
H -0.378587	0.853411	0.553174
H -0.383441	0.057912	-1.012986
H -0.394375	-0.901102	0.453680
H 2.369751	-1.286855	3.159644
H 0.820075	-1.455658	2.358980
H 2.260625	-2.158707	1.638562
14
Bead 1: Energy = 0.0
C 0.000000	0.000000	0.000000
C 1.541529	0.000000	0.000000
C 2.147828	0.000000	1.419084
C 1.514784	-1.054770	2.348038
H 1.559677	0.652242	2.057778
H 3.225488	0.105682	1.340877
H 1.361414	-1.024920	-0.310495
H 2.103554	0.689637	-0.622206
H -0.380840	0.860839	0.539388
H -0.383435	0.041541	-1.013788
H -0.392130	-0.895066	0.468014
H 1.996283	-1.048121	3.319954
H 0.459118	-0.862242	2.497929
H 1.622916	-2.048202	1.925656
14
Bead 2: Energy = 0.0
C 0.000000	0.000000	0.000000
C 1.541532	0.000000	0.000000
C 2.147791	0.000000	1.419097
C 1.245406	-0.687084	2.463069
H 1.424857	0.414568	2.115352
H 3.228651	0.063562	1.339536
H 0.831602	-0.817449	-0.084148
H 2.256489	0.441312	-0.687523
H -0.383090	0.868042	0.525502
H -0.383429	0.025160	-1.014325
H -0.389881	-0.888798	0.482267
H 1.718889	-0.686394	3.438935
H 0.294193	-0.175577	2.553185
H 1.052606	-1.717301	2.184011
14
Bead 3: Energy = 0.0
C 0.000000	0.000000	0.000000
C 1.541534	0.000000	0.000000
C 2.147752	0.000000	1.419110
C 1.100353	-0.237289	2.524972
H 1.353452	0.142275	2.145826
H 3.230229	0.020739	1.338872
H 0.502407	-0.310358	0.056465
H 2.337803	0.151456	-0.722236
H -0.385369	0.875113	0.511321
H -0.383422	0.008541	-1.014600
H -0.387597	-0.882205	0.496634
H 1.568952	-0.237591	3.503189
H 0.344670	0.539912	2.516286
H 0.606719	-1.193185	2.389479
14
Bead 4: Energy = 0.0
C 0.000000	0.000000	0.000000
C 1.541537	0.000000	0.000000
C 2.147715	0.000000	1.419124
C 1.099568	0.232781	2.525243
H 1.352724	-0.136947	2.146107
H 3.230175	-0.021524	1.338905
H 0.500007	0.301999	0.057466
H 2.338369	-0.147401	-0.722452
H -0.387612	0.881856	0.497245
H -0.383416	-0.007849	-1.014604
H -0.385341	-0.875472	0.510712
H 1.568135	0.233307	3.503472
H 0.603055	1.187347	2.390881
H 0.346242	-0.546683	2.515603
14
Bead 5: Energy = 0.0
C 0.000000	0.000000	0.000000
C 1.541539	0.000000	0.000000
C 2.147677	0.000000	1.419137
C 1.243115	0.683102	2.463866
H 1.422704	-0.409642	2.116186
H 3.228487	-0.064346	1.339636
H 0.825227	0.812122	-0.081466
H 2.258154	-0.437604	-0.688164
H -0.389884	0.888458	0.482880
H -0.383409	-0.024468	-1.014338
H -0.383051	-0.868410	0.524895
H 1.716514	0.682663	3.439763
H 1.047233	1.713061	2.186018
H 0.293462	0.168614	2.553296
14
Bead 6: Energy = 0.0
C 0.000000	0.000000	0.000000
C 1.541542	0.000000	0.000000
C 2.147639	0.000000	1.419150
C 1.506732	1.047293	2.351220
H 1.553989	-0.645016	2.060089
H 3.225273	-0.105872	1.341019
H 1.345388	1.024015	-0.303632
H 2.108749	-0.683438	-0.624333
H -0.392089	0.894650	0.468830
H -0.383403	-0.040619	-1.013818
H -0.380820	-0.861321	0.538588
H 1.987995	1.041068	3.323239
H 1.607800	2.042787	1.931989
H 0.452465	0.846651	2.500196
14
Bead 7: Energy = 0.0
C 0.000000	0.000000	0.000000
C 1.541544	0.000000	0.000000
C 2.147601	0.000000	1.419164
C 1.881170	1.307377	2.191263
H 1.746998	-0.840767	1.977640
H 3.220273	-0.148991	1.343164
H 1.905639	0.867167	-0.542885
H 1.891362	-0.879636	-0.531478
H -0.394386	0.900866	0.454094
H -0.383397	-0.057451	-1.013002
H -0.378491	-0.853693	0.552765
H 2.371004	1.287863	3.158811
H 2.262894	2.158723	1.637102
H 0.821549	1.457929	2.358106
