3
Bead 0: Energy = -1.00336898873
H 0.000000	0.000000	0.000000
O 0.000000	0.000000	0.000000
H nan	nan	nan
3
Bead 1: Energy = -0.942239049357
H 0.000000	0.000000	0.000000
O 0.145842	0.000000	0.000000
H 0.000004	0.000000	0.001138
3
Bead 2: Energy = -0.617812615826
H 0.000000	0.000000	0.000000
O 0.468815	0.000000	0.000000
H 0.000065	0.000000	0.007824
3
Bead 3: Energy = -0.413139912284
H 0.000000	0.000000	0.000000
O 0.566182	0.000000	0.000000
H 0.000191	0.000000	0.014689
3
Bead 4: Energy = -0.469404446661
H 0.000000	0.000000	0.000000
O 0.687314	0.000000	0.000000
H 0.000472	0.000000	0.025462
3
Bead 5: Energy = -0.253337957261
H 0.000000	0.000000	0.000000
O 1.174681	0.000000	0.000000
H 0.001124	0.000000	0.051377
3
Bead 6: Energy = -0.0805721570537
H 0.000000	0.000000	0.000000
O 1.744143	0.000000	0.000000
H 0.001587	0.000000	0.074387
3
Bead 7: Energy = -0.109569004453
H 0.000000	0.000000	0.000000
O 2.250437	0.000000	0.000000
H 0.002154	0.000000	0.098430
3
Bead 8: Energy = -0.512697979821
H 0.000000	0.000000	0.000000
O 2.744691	0.000000	0.000000
H 0.003411	0.000000	0.136796
3
Bead 9: Energy = -0.820000895403
H 0.000000	0.000000	0.000000
O 3.000000	0.000000	0.000000
H 0.004111	0.000000	0.157008
