5
Bead 0: Energy = -20.988275
Pd	0.075997	0.043743	0.448944
Pd	1.397994	2.333126	0.450156
Pd	2.719832	0.044589	0.448800
Pd	4.194287	2.420661	1.453119
H	1.397937	0.807336	1.501050
5
Bead 1: Energy = -23.653894
Pd	0.259546	-0.341293	0.405241
Pd	0.984665	2.333822	0.523152
Pd	2.934276	0.359163	0.515157
Pd	4.145671	2.457991	1.502988
H	1.429513	0.814656	1.362128
5
Bead 2: Energy = -24.099677
Pd	0.207954	-0.534019	0.117106
Pd	0.852951	2.134856	0.611124
Pd	3.188090	0.614227	0.534632
Pd	4.238675	2.833256	1.564474
H	1.787978	0.980955	1.374958
5
Bead 3: Energy = -24.169883
Pd	-0.174477	-0.509698	-0.012524
Pd	0.983208	1.956466	0.823248
Pd	3.326078	0.698180	0.401512
Pd	4.508272	3.188988	1.327171
H	2.035355	1.007810	1.580805
5
Bead 4: Energy = -23.800881
Pd	-0.180184	-0.446873	-0.078998
Pd	1.148925	2.012046	0.953644
Pd	3.353382	0.627958	0.718155
Pd	4.458932	3.261987	0.770810
H	2.107322	1.049495	1.713817
5
Bead 5: Energy = -23.875664
Pd	-0.118424	-0.347340	0.056076
Pd	1.151303	2.142281	1.035270
Pd	3.336281	0.557406	0.913290
Pd	4.573138	3.146127	0.280411
H	2.128174	1.147405	1.755273
5
Bead 6: Energy = -24.132135
Pd	-0.074053	-0.353360	0.364615
Pd	1.110504	2.198059	1.050174
Pd	3.400850	0.667032	0.768897
Pd	4.747398	3.152899	-0.052037
H	2.299588	1.302275	1.824340
5
Bead 7: Energy = -24.246421
Pd	0.048287	-0.365968	0.403749
Pd	1.221519	2.223350	1.036406
Pd	3.536680	0.886093	0.690154
Pd	4.894430	3.250731	-0.153603
H	2.532003	1.553468	1.826722
