3
Bead 0: Energy = -1.00336898873
H 0.000000	0.000000	0.000000
O 0.000000	0.000000	0.000000
H nan	nan	nan
3
Bead 1: Energy = -0.84907427427
H 0.000000	0.000000	0.000000
O 0.105903	0.000000	0.000000
H 0.000003	0.000000	0.000747
3
Bead 2: Energy = -0.51505253679
H 0.000000	0.000000	0.000000
O 0.440984	0.000000	0.000000
H 0.000047	0.000000	0.006452
3
Bead 3: Energy = -0.410289169059
H 0.000000	0.000000	0.000000
O 0.646649	0.000000	0.000000
H 0.000179	0.000000	0.015194
3
Bead 4: Energy = -0.471688054242
H 0.000000	0.000000	0.000000
O 0.650071	0.000000	0.000000
H 0.000392	0.000000	0.022569
3
Bead 5: Energy = -0.283839020114
H 0.000000	0.000000	0.000000
O 1.049756	0.000000	0.000000
H 0.000956	0.000000	0.044788
3
Bead 6: Energy = -0.0714514182399
H 0.000000	0.000000	0.000000
O 1.641713	0.000000	0.000000
H 0.001574	0.000000	0.071878
3
Bead 7: Energy = -0.172026133116
H 0.000000	0.000000	0.000000
O 2.183372	0.000000	0.000000
H 0.001975	0.000000	0.092851
3
Bead 8: Energy = -0.61346790151
H 0.000000	0.000000	0.000000
O 2.693201	0.000000	0.000000
H 0.003245	0.000000	0.132170
3
Bead 9: Energy = -0.820000895403
H 0.000000	0.000000	0.000000
O 3.000000	0.000000	0.000000
H 0.004111	0.000000	0.157008
