8
Bead 0: Energy = -78.7926368276
H 0.000000	0.000000	0.000000
C 1.070000	0.000000	0.000000
C 1.583328	0.000000	1.451928
H 2.653326	0.001761	1.451928
H 1.225220	0.872771	1.956834
H 1.227952	-0.874444	1.955868
H 1.426671	0.873653	-0.504398
H 1.426671	-0.873653	-0.504398
8
Bead 1: Energy = -78.7924439342
H 0.000000	0.000000	0.000000
C 1.078415	0.000000	0.000000
C 1.594588	0.000000	1.459972
H 2.630905	-0.297993	1.474855
H 1.499472	0.990855	1.874875
H 1.012738	-0.692729	2.046959
H 1.437889	0.880523	-0.508366
H 1.437889	-0.880523	-0.508366
8
Bead 2: Energy = -78.7903828081
H 0.000000	0.000000	0.000000
C 1.078093	0.000000	0.000000
C 1.595550	0.000000	1.463602
H 2.508065	-0.571111	1.522142
H 1.785283	1.013728	1.777684
H 0.852587	-0.442453	2.107438
H 1.437459	0.880259	-0.508215
H 1.437459	-0.880260	-0.508214
8
Bead 3: Energy = -78.7887525505
H 0.000000	0.000000	0.000000
C 1.077827	0.000000	0.000000
C 1.596330	0.000000	1.466558
H 2.314738	-0.793377	1.593630
H 2.064553	0.946590	1.682085
H 0.768944	-0.153033	2.140148
H 1.437105	0.880042	-0.508090
H 1.437104	-0.880042	-0.508089
8
Bead 4: Energy = -78.7887421401
H 0.000000	0.000000	0.000000
C 1.077825	0.000000	0.000000
C 1.596335	0.000000	1.466577
H 2.067668	-0.945287	1.681002
H 2.312131	0.795591	1.594574
H 0.768501	0.149876	2.140325
H 1.437102	0.880041	-0.508089
H 1.437102	-0.880041	-0.508089
8
Bead 5: Energy = -78.7903589702
H 0.000000	0.000000	0.000000
C 1.078089	0.000000	0.000000
C 1.595562	0.000000	1.463645
H 1.788629	-1.013454	1.776544
H 2.506194	0.574043	1.522850
H 0.851295	0.439575	2.107940
H 1.437454	0.880256	-0.508213
H 1.437454	-0.880256	-0.508213
8
Bead 6: Energy = -78.792424428
H 0.000000	0.000000	0.000000
C 1.078412	0.000000	0.000000
C 1.594598	0.000000	1.460006
H 1.502745	-0.991637	1.873752
H 2.629930	0.301384	1.475237
H 1.010700	0.690386	2.047716
H 1.437885	0.880520	-0.508365
H 1.437885	-0.880520	-0.508365
8
Bead 7: Energy = -78.79263682
H 0.000000	0.000000	0.000000
C 1.070000	0.000000	0.000000
C 1.583328	0.000000	1.451928
H 1.228096	-0.874532	1.955817
H 2.653326	0.001761	1.451928
H 1.225364	0.872859	1.956783
H 1.426671	0.873653	-0.504398
H 1.426671	-0.873653	-0.504398
