8
Bead 0: Energy = -78.7926368276
H 0.000000	0.000000	0.000000
C 1.070000	0.000000	0.000000
C 1.583328	0.000000	1.451928
H 2.653326	0.001761	1.451928
H 1.225220	0.872771	1.956834
H 1.227952	-0.874444	1.955868
H 1.426671	0.873653	-0.504398
H 1.426671	-0.873653	-0.504398
8
Bead 1: Energy = -78.7267486836
H 0.000000	0.000000	0.000000
C 1.216341	0.000000	0.000000
C 1.779165	0.000000	1.591820
H 2.947989	-0.336093	1.608606
H 1.671893	1.117617	2.059830
H 1.122929	-0.781322	2.253909
H 1.621772	0.993127	-0.573412
H 1.621763	-0.993132	-0.573409
8
Bead 2: Energy = -78.7216451948
H 0.000000	0.000000	0.000000
C 1.210737	0.000000	0.000000
C 1.795892	0.000000	1.654957
H 2.820646	-0.641350	1.720700
H 2.008989	1.138494	2.007719
H 0.961556	-0.496892	2.378048
H 1.614296	0.988549	-0.570777
H 1.614285	-0.988555	-0.570773
8
Bead 3: Energy = -78.7166819392
H 0.000000	0.000000	0.000000
C 1.206115	0.000000	0.000000
C 1.809451	0.000000	1.706357
H 2.613346	-0.887768	1.848558
H 2.333435	1.059289	1.947563
H 0.883632	-0.171248	2.460167
H 1.608126	0.984775	-0.568602
H 1.608120	-0.984777	-0.568600
8
Bead 4: Energy = -78.7166468714
H 0.000000	0.000000	0.000000
C 1.206086	0.000000	0.000000
C 1.809539	0.000000	1.706690
H 2.336955	-1.057727	1.946639
H 2.610554	0.890289	1.849932
H 0.883235	0.167712	2.460663
H 1.608081	0.984753	-0.568586
H 1.608086	-0.984749	-0.568587
8
Bead 5: Energy = -78.7215787989
H 0.000000	0.000000	0.000000
C 1.210673	0.000000	0.000000
C 1.796090	0.000000	1.655697
H 2.012910	-1.138038	2.007085
H 2.818757	0.644652	1.722189
H 0.960332	0.493634	2.379268
H 1.614199	0.988501	-0.570742
H 1.614210	-0.988494	-0.570745
8
Bead 6: Energy = -78.726706764
H 0.000000	0.000000	0.000000
C 1.216292	0.000000	0.000000
C 1.779323	0.000000	1.592408
H 1.675748	-1.118376	2.059060
H 2.947072	0.339923	1.609588
H 1.120802	0.778651	2.255289
H 1.621696	0.993089	-0.573384
H 1.621705	-0.993083	-0.573388
8
Bead 7: Energy = -78.79263682
H 0.000000	0.000000	0.000000
C 1.070000	0.000000	0.000000
C 1.583328	0.000000	1.451928
H 1.228096	-0.874532	1.955817
H 2.653326	0.001761	1.451928
H 1.225364	0.872859	1.956783
H 1.426671	0.873653	-0.504398
H 1.426671	-0.873653	-0.504398
