3
Bead 0: Energy = -1.00336898873
H 0.000000	0.000000	0.000000
O 0.000000	0.000000	0.000000
H nan	nan	nan
3
Bead 1: Energy = -0.907560768827
H 0.000000	0.000000	0.000000
O 0.221135	0.000000	0.000000
H 0.000007	0.000000	0.001755
3
Bead 2: Energy = -0.597699544074
H 0.000000	0.000000	0.000000
O 0.573363	0.000000	0.000000
H 0.000067	0.000000	0.008780
3
Bead 3: Energy = -0.392748042847
H 0.000000	0.000000	0.000000
O 0.582422	0.000000	0.000000
H 0.000174	0.000000	0.014230
3
Bead 4: Energy = -0.46444107571
H 0.000000	0.000000	0.000000
O 0.660284	0.000000	0.000000
H 0.000397	0.000000	0.022889
3
Bead 5: Energy = -0.34200209004
H 0.000000	0.000000	0.000000
O 0.912963	0.000000	0.000000
H 0.000750	0.000000	0.036997
3
Bead 6: Energy = -0.0650107543032
H 0.000000	0.000000	0.000000
O 1.481938	0.000000	0.000000
H 0.001594	0.000000	0.068724
3
Bead 7: Energy = -0.265229930846
H 0.000000	0.000000	0.000000
O 2.070072	0.000000	0.000000
H 0.002165	0.000000	0.094640
3
Bead 8: Energy = -0.705994169365
H 0.000000	0.000000	0.000000
O 2.612002	0.000000	0.000000
H 0.002901	0.000000	0.123071
3
Bead 9: Energy = -0.820000895403
H 0.000000	0.000000	0.000000
O 3.000000	0.000000	0.000000
H 0.004111	0.000000	0.157008
