3
Bead 0: Energy = -1.00336898873
H 0.000000	0.000000	0.000000
O 0.000000	0.000000	0.000000
H nan	nan	nan
3
Bead 1: Energy = -0.835538833002
H 0.000000	0.000000	0.000000
O 0.157108	0.000000	0.000000
H 0.000004	0.000000	0.001175
3
Bead 2: Energy = -0.520287974403
H 0.000000	0.000000	0.000000
O 0.432476	0.000000	0.000000
H 0.000047	0.000000	0.006345
3
Bead 3: Energy = -0.396569106225
H 0.000000	0.000000	0.000000
O 0.592583	0.000000	0.000000
H 0.000155	0.000000	0.013546
3
Bead 4: Energy = -0.325816132083
H 0.000000	0.000000	0.000000
O 0.888969	0.000000	0.000000
H 0.000395	0.000000	0.026483
3
Bead 5: Energy = -0.127362681069
H 0.000000	0.000000	0.000000
O 1.280459	0.000000	0.000000
H 0.000777	0.000000	0.044609
3
Bead 6: Energy = -0.0699716921788
H 0.000000	0.000000	0.000000
O 1.688727	0.000000	0.000000
H 0.001338	0.000000	0.067204
3
Bead 7: Energy = -0.277756281803
H 0.000000	0.000000	0.000000
O 2.127731	0.000000	0.000000
H 0.002050	0.000000	0.093374
3
Bead 8: Energy = -0.64744938913
H 0.000000	0.000000	0.000000
O 2.570319	0.000000	0.000000
H 0.002927	0.000000	0.122638
3
Bead 9: Energy = -0.820000895403
H 0.000000	0.000000	0.000000
O 3.000000	0.000000	0.000000
H 0.004111	0.000000	0.157008
