3
Bead 0: Energy = -1.00336898873
H 0.000000	0.000000	0.000000
O 0.000000	0.000000	0.000000
H nan	nan	nan
3
Bead 1: Energy = -0.816968351239
H 0.000000	0.000000	0.000000
O 0.218501	0.000000	0.000000
H 0.000007	0.000000	0.001742
3
Bead 2: Energy = -0.492347058659
H 0.000000	0.000000	0.000000
O 0.529185	0.000000	0.000000
H 0.000072	0.000000	0.008735
3
Bead 3: Energy = -0.41868410588
H 0.000000	0.000000	0.000000
O 0.599299	0.000000	0.000000
H 0.000206	0.000000	0.015727
3
Bead 4: Energy = -0.471174316102
H 0.000000	0.000000	0.000000
O 0.776549	0.000000	0.000000
H 0.000505	0.000000	0.028010
3
Bead 5: Energy = -0.31110114735
H 0.000000	0.000000	0.000000
O 1.184201	0.000000	0.000000
H 0.001076	0.000000	0.050465
3
Bead 6: Energy = -0.0772155247665
H 0.000000	0.000000	0.000000
O 1.758063	0.000000	0.000000
H 0.001453	0.000000	0.071467
3
Bead 7: Energy = -0.233263048432
H 0.000000	0.000000	0.000000
O 2.166405	0.000000	0.000000
H 0.002177	0.000000	0.097106
3
Bead 8: Energy = -0.630426227127
H 0.000000	0.000000	0.000000
O 2.630008	0.000000	0.000000
H 0.003203	0.000000	0.129757
3
Bead 9: Energy = -0.820000895403
H 0.000000	0.000000	0.000000
O 3.000000	0.000000	0.000000
H 0.004111	0.000000	0.157008
