3
Bead 0: Energy = -1.00336898873
H 0.000000	0.000000	0.000000
O 0.000000	0.000000	0.000000
H nan	nan	nan
3
Bead 1: Energy = -0.714410371123
H 0.000000	0.000000	0.000000
O 0.192666	0.000000	0.000000
H 0.000007	0.000000	0.001694
3
Bead 2: Energy = -0.424369894775
H 0.000000	0.000000	0.000000
O 0.301715	0.000000	0.000000
H 0.000021	0.000000	0.003523
3
Bead 3: Energy = -0.45924429117
H 0.000000	0.000000	0.000000
O 0.525757	0.000000	0.000000
H 0.000113	0.000000	0.010921
3
Bead 4: Energy = -0.393040501062
H 0.000000	0.000000	0.000000
O 0.606405	0.000000	0.000000
H 0.000292	0.000000	0.018806
3
Bead 5: Energy = -0.077123339973
H 0.000000	0.000000	0.000000
O 0.948361	0.000000	0.000000
H 0.000833	0.000000	0.039747
3
Bead 6: Energy = -0.0868277661953
H 0.000000	0.000000	0.000000
O 1.514410	0.000000	0.000000
H 0.001587	0.000000	0.069323
3
Bead 7: Energy = -0.420665252975
H 0.000000	0.000000	0.000000
O 2.048062	0.000000	0.000000
H 0.001820	0.000000	0.086312
3
Bead 8: Energy = -0.60229526349
H 0.000000	0.000000	0.000000
O 2.630556	0.000000	0.000000
H 0.002907	0.000000	0.123627
3
Bead 9: Energy = -0.820000895403
H 0.000000	0.000000	0.000000
O 3.000000	0.000000	0.000000
H 0.004111	0.000000	0.157008
