3
Bead 0: Energy = -1.00336898873
H 0.000000	0.000000	0.000000
O 0.000000	0.000000	0.000000
H nan	nan	nan
3
Bead 1: Energy = -0.750501702069
H 0.000000	0.000000	0.000000
O 0.098581	0.000000	0.000000
H 0.000005	0.000000	0.000963
3
Bead 2: Energy = -0.448826439701
H 0.000000	0.000000	0.000000
O 0.505409	0.000000	0.000000
H 0.000062	0.000000	0.007889
3
Bead 3: Energy = -0.423142060435
H 0.000000	0.000000	0.000000
O 0.644904	0.000000	0.000000
H 0.000188	0.000000	0.015563
3
Bead 4: Energy = -0.467982747068
H 0.000000	0.000000	0.000000
O 0.594162	0.000000	0.000000
H 0.000334	0.000000	0.019916
3
Bead 5: Energy = -0.273916955327
H 0.000000	0.000000	0.000000
O 0.973297	0.000000	0.000000
H 0.000836	0.000000	0.040338
3
Bead 6: Energy = -0.0760478484847
H 0.000000	0.000000	0.000000
O 1.596432	0.000000	0.000000
H 0.001551	0.000000	0.070347
3
Bead 7: Energy = -0.263677624017
H 0.000000	0.000000	0.000000
O 2.171552	0.000000	0.000000
H 0.001963	0.000000	0.092303
3
Bead 8: Energy = -0.686393593014
H 0.000000	0.000000	0.000000
O 2.612088	0.000000	0.000000
H 0.003103	0.000000	0.127287
3
Bead 9: Energy = -0.820000895403
H 0.000000	0.000000	0.000000
O 3.000000	0.000000	0.000000
H 0.004111	0.000000	0.157008
