14
Bead 0: Energy = -156.431333055
C 0.000000	0.000000	0.000000
C 1.541527	0.000000	0.000000
C 2.147866	0.000000	1.419070
C 1.879910	-1.306477	2.192078
H 1.748439	0.841594	1.977148
H 3.220734	0.147623	1.342899
H 1.905515	-0.867180	-0.542982
H 1.891363	0.879586	-0.531559
H -0.378587	0.853411	0.553174
H -0.383441	0.057912	-1.012986
H -0.394375	-0.901102	0.453680
H 2.369751	-1.286855	3.159644
H 0.820075	-1.455658	2.358980
H 2.260625	-2.158707	1.638562
14
Bead 1: Energy = -156.352354098
C 0.000000	0.000000	0.000000
C 1.572940	0.000000	0.000000
C 2.181344	0.000000	1.423987
C 1.535373	-1.076259	2.371910
H 1.585415	0.660893	2.071149
H 3.245317	0.104352	1.346752
H 1.390424	-1.038489	-0.314607
H 2.127874	0.680879	-0.614325
H -0.384784	0.869765	0.544986
H -0.383641	0.041567	-1.014326
H -0.390711	-0.891817	0.466310
H 2.017134	-1.069608	3.344331
H 0.483558	-0.884410	2.521269
H 1.644601	-2.079985	1.945159
14
Bead 2: Energy = -156.058983812
C 0.000000	0.000000	0.000000
C 1.647767	0.000000	0.000000
C 2.254746	0.000000	1.420786
C 1.290167	-0.734472	2.536716
H 1.531626	0.414669	2.117214
H 3.322067	0.062760	1.342226
H 0.937681	-0.817652	-0.084169
H 2.353761	0.435808	-0.678913
H -0.387534	0.878103	0.531590
H -0.382961	0.025127	-1.013085
H -0.392649	-0.895094	0.485687
H 1.763069	-0.733782	3.511393
H 0.332210	-0.219367	2.627474
H 1.095149	-1.776640	2.254416
14
Bead 3: Energy = -155.179306709
C 0.000000	0.000000	0.000000
C 1.690745	0.000000	0.000000
C 2.299088	0.000000	1.424061
C 1.150335	-0.260282	2.636968
H 1.579814	0.128834	2.082135
H 3.377755	0.020661	1.344101
H 0.749779	-0.281056	0.051141
H 2.484202	0.150946	-0.719701
H -0.385073	0.874441	0.510927
H -0.382903	0.008527	-1.013228
H -0.387861	-0.882801	0.496971
H 1.618312	-0.260580	3.613858
H 0.394127	0.517429	2.628291
H 0.657095	-1.215452	2.501582
14
Bead 4: Energy = -155.132098255
C 0.000000	0.000000	0.000000
C 1.694338	0.000000	0.000000
C 2.302633	0.000000	1.424051
C 1.149514	0.248640	2.640300
H 1.588566	-0.119408	2.076825
H 3.381542	-0.020854	1.344087
H 0.757287	0.263557	0.052496
H 2.489089	-0.142753	-0.720317
H -0.387743	0.882127	0.497652
H -0.382904	-0.007606	-1.013251
H -0.385024	-0.874775	0.510049
H 1.617434	0.249153	3.617232
H 0.649473	1.200523	2.507979
H 0.399131	-0.534281	2.629060
14
Bead 5: Energy = -156.046751844
C 0.000000	0.000000	0.000000
C 1.649889	0.000000	0.000000
C 2.256434	0.000000	1.420098
C 1.285148	0.724873	2.539599
H 1.530775	-0.405572	2.117026
H 3.323226	-0.062913	1.341623
H 0.927968	0.805878	-0.078658
H 2.358805	-0.428149	-0.679913
H -0.392234	0.893781	0.486029
H -0.382859	-0.024199	-1.012884
H -0.387396	-0.878280	0.530596
H 1.757764	0.724475	3.514137
H 1.082732	1.766133	2.260692
H 0.331863	0.203074	2.628433
14
Bead 6: Energy = -156.349809393
C 0.000000	0.000000	0.000000
C 1.578788	0.000000	0.000000
C 2.187197	0.000000	1.424500
C 1.535054	1.076774	2.377322
H 1.592444	-0.651446	2.068081
H 3.255577	-0.105543	1.347000
H 1.389004	1.030054	-0.308490
H 2.138855	-0.680432	-0.617990
H -0.391637	0.893599	0.468039
H -0.383860	-0.040890	-1.014999
H -0.386031	-0.873111	0.546217
H 2.017031	1.070426	3.350427
H 1.641324	2.084938	1.950439
H 0.481381	0.880700	2.526649
14
Bead 7: Energy = -156.431333077
C 0.000000	0.000000	0.000000
C 1.541544	0.000000	0.000000
C 2.147601	0.000000	1.419164
C 1.881170	1.307377	2.191263
H 1.746998	-0.840767	1.977640
H 3.220273	-0.148991	1.343164
H 1.905639	0.867167	-0.542885
H 1.891362	-0.879636	-0.531478
H -0.394386	0.900866	0.454094
H -0.383397	-0.057451	-1.013002
H -0.378491	-0.853693	0.552765
H 2.371004	1.287863	3.158811
H 2.262894	2.158723	1.637102
H 0.821549	1.457929	2.358106
