14
Bead 0: Energy = -156.431333055
C 0.000000	0.000000	0.000000
C 1.541527	0.000000	0.000000
C 2.147866	0.000000	1.419070
C 1.879910	-1.306477	2.192078
H 1.748439	0.841594	1.977148
H 3.220734	0.147623	1.342899
H 1.905515	-0.867180	-0.542982
H 1.891363	0.879586	-0.531559
H -0.378587	0.853411	0.553174
H -0.383441	0.057912	-1.012986
H -0.394375	-0.901102	0.453680
H 2.369751	-1.286855	3.159644
H 0.820075	-1.455658	2.358980
H 2.260625	-2.158707	1.638562
14
Bead 1: Energy = -156.355300881
C 0.000000	0.000000	0.000000
C 1.599857	0.000000	0.000000
C 2.210866	0.000000	1.430214
C 1.553619	-1.095389	2.394703
H 1.621978	0.652927	2.069604
H 3.276453	0.104434	1.352995
H 1.419615	-1.026135	-0.310866
H 2.155448	0.682065	-0.615255
H -0.383162	0.866031	0.542616
H -0.384367	0.041625	-1.016303
H -0.390628	-0.891701	0.466279
H 2.036253	-1.088711	3.369026
H 0.501938	-0.903717	2.543951
H 1.662587	-2.094689	1.969696
14
Bead 2: Energy = -156.112136555
C 0.000000	0.000000	0.000000
C 1.824547	0.000000	0.000000
C 2.431393	0.000000	1.420586
C 1.363508	-0.813693	2.656047
H 1.715944	0.410119	2.109579
H 3.489945	0.062119	1.342844
H 1.122178	-0.809013	-0.083356
H 2.524500	0.432586	-0.673353
H -0.385889	0.874334	0.529266
H -0.382197	0.025043	-1.011178
H -0.390594	-0.890466	0.483231
H 1.835472	-0.812952	3.628880
H 0.410334	-0.301513	2.746296
H 1.169639	-1.851373	2.374856
14
Bead 3: Energy = -155.865812803
C 0.000000	0.000000	0.000000
C 2.121476	0.000000	0.000000
C 2.711815	0.000000	1.381856
C 1.270454	-0.326749	2.903819
H 1.955360	0.135487	2.073977
H 3.773357	0.020310	1.303185
H 1.131883	-0.295653	0.053785
H 2.902294	0.148653	-0.708311
H -0.384898	0.874043	0.510688
H -0.380960	0.008479	-1.008114
H -0.386525	-0.879770	0.495270
H 1.736105	-0.327032	3.875756
H 0.516789	0.448230	2.895210
H 0.777509	-1.281523	2.768484
14
Bead 4: Energy = -155.860623761
C 0.000000	0.000000	0.000000
C 2.125323	0.000000	0.000000
C 2.715240	0.000000	1.380968
C 1.268612	0.310216	2.906737
H 1.958075	-0.125852	2.073129
H 3.776673	-0.020379	1.302315
H 1.131404	0.277899	0.055846
H 2.907262	-0.139714	-0.708728
H -0.386405	0.879090	0.495992
H -0.380924	-0.007516	-1.008041
H -0.384951	-0.874614	0.509899
H 1.734157	0.310713	3.878628
H 0.767948	1.261563	2.774820
H 0.521397	-0.470592	2.895253
14
Bead 5: Energy = -156.104730698
C 0.000000	0.000000	0.000000
C 1.836766	0.000000	0.000000
C 2.444871	0.000000	1.423839
C 1.364426	0.808728	2.669675
H 1.727326	-0.401777	2.113092
H 3.501644	-0.062329	1.346252
H 1.124032	0.798284	-0.078414
H 2.538492	-0.425180	-0.673402
H -0.390433	0.889730	0.483824
H -0.382324	-0.024182	-1.011571
H -0.385306	-0.873507	0.527727
H 1.836418	0.808276	3.642947
H 1.164233	1.844415	2.391784
H 0.414945	0.290376	2.758300
14
Bead 6: Energy = -156.352783903
C 0.000000	0.000000	0.000000
C 1.602304	0.000000	0.000000
C 2.213010	0.000000	1.429994
C 1.551199	1.092759	2.396844
H 1.616203	-0.653377	2.075650
H 3.279447	-0.105253	1.352751
H 1.411761	1.033445	-0.309427
H 2.161229	-0.679265	-0.616876
H -0.390314	0.890616	0.466520
H -0.383728	-0.040847	-1.014708
H -0.381138	-0.861987	0.539219
H 2.032978	1.086397	3.369691
H 1.656168	2.087872	1.975517
H 0.500943	0.897371	2.545506
14
Bead 7: Energy = -156.431333077
C 0.000000	0.000000	0.000000
C 1.541544	0.000000	0.000000
C 2.147601	0.000000	1.419164
C 1.881170	1.307377	2.191263
H 1.746998	-0.840767	1.977640
H 3.220273	-0.148991	1.343164
H 1.905639	0.867167	-0.542885
H 1.891362	-0.879636	-0.531478
H -0.394386	0.900866	0.454094
H -0.383397	-0.057451	-1.013002
H -0.378491	-0.853693	0.552765
H 2.371004	1.287863	3.158811
H 2.262894	2.158723	1.637102
H 0.821549	1.457929	2.358106
