3
Bead 0: Energy = -1.00336898873
H 0.000000	0.000000	0.000000
O 0.000000	0.000000	0.000000
H nan	nan	nan
3
Bead 1: Energy = -0.862679233045
H 0.000000	0.000000	0.000000
O 0.224249	0.000000	0.000000
H 0.000010	0.000000	0.002107
3
Bead 2: Energy = -0.55627677044
H 0.000000	0.000000	0.000000
O 0.503771	0.000000	0.000000
H 0.000090	0.000000	0.009505
3
Bead 3: Energy = -0.416198880395
H 0.000000	0.000000	0.000000
O 0.570763	0.000000	0.000000
H 0.000246	0.000000	0.016752
3
Bead 4: Energy = -0.467814616443
H 0.000000	0.000000	0.000000
O 0.811264	0.000000	0.000000
H 0.000603	0.000000	0.031274
3
Bead 5: Energy = -0.23499043398
H 0.000000	0.000000	0.000000
O 1.260704	0.000000	0.000000
H 0.001340	0.000000	0.058109
3
Bead 6: Energy = -0.0763490442876
H 0.000000	0.000000	0.000000
O 1.675827	0.000000	0.000000
H 0.001495	0.000000	0.070762
3
Bead 7: Energy = -0.2827893885
H 0.000000	0.000000	0.000000
O 2.168204	0.000000	0.000000
H 0.002005	0.000000	0.093230
3
Bead 8: Energy = -0.678825720268
H 0.000000	0.000000	0.000000
O 2.622434	0.000000	0.000000
H 0.003177	0.000000	0.129046
3
Bead 9: Energy = -0.820000895403
H 0.000000	0.000000	0.000000
O 3.000000	0.000000	0.000000
H 0.004111	0.000000	0.157008
