14
Bead 0: Energy = -156.431333055
C 0.000000	0.000000	0.000000
C 1.541527	0.000000	0.000000
C 2.147866	0.000000	1.419070
C 1.879910	-1.306477	2.192078
H 1.748439	0.841594	1.977148
H 3.220734	0.147623	1.342899
H 1.905515	-0.867180	-0.542982
H 1.891363	0.879586	-0.531559
H -0.378587	0.853411	0.553174
H -0.383441	0.057912	-1.012986
H -0.394375	-0.901102	0.453680
H 2.369751	-1.286855	3.159644
H 0.820075	-1.455658	2.358980
H 2.260625	-2.158707	1.638562
14
Bead 1: Energy = -156.354643167
C 0.000000	0.000000	0.000000
C 1.587175	0.000000	0.000000
C 2.194240	0.000000	1.420813
C 1.542392	-1.085956	2.377359
H 1.601205	0.657733	2.064874
H 3.261785	0.104724	1.343281
H 1.405508	-1.033492	-0.313095
H 2.144017	0.683111	-0.616380
H -0.383039	0.865843	0.542537
H -0.383132	0.041518	-1.012966
H -0.390776	-0.891946	0.466370
H 2.023529	-1.079317	3.348474
H 0.490433	-0.894037	2.526764
H 1.651084	-2.085173	1.952535
14
Bead 2: Energy = -156.089932605
C 0.000000	0.000000	0.000000
C 1.703912	0.000000	0.000000
C 2.310585	0.000000	1.420076
C 1.313153	-0.759534	2.574018
H 1.592247	0.411916	2.111891
H 3.373213	0.062475	1.341872
H 0.998545	-0.812245	-0.083617
H 2.406784	0.433923	-0.675929
H -0.386885	0.876626	0.530693
H -0.382223	0.025076	-1.011136
H -0.391492	-0.892449	0.484257
H 1.785142	-0.758842	3.546821
H 0.358012	-0.245978	2.664508
H 1.118489	-1.799950	2.292186
14
Bead 3: Energy = -155.551160826
C 0.000000	0.000000	0.000000
C 1.780544	0.000000	0.000000
C 2.391443	0.000000	1.430029
C 1.181673	-0.274126	2.707382
H 1.697954	0.124216	2.064518
H 3.465058	0.020563	1.350446
H 0.873293	-0.270996	0.049310
H 2.570279	0.150252	-0.716337
H -0.384838	0.873907	0.510614
H -0.382340	0.008514	-1.011738
H -0.387788	-0.882634	0.496878
H 1.648970	-0.274422	3.682832
H 0.425602	0.503428	2.698714
H 0.688742	-1.228720	2.572078
14
Bead 4: Energy = -155.546948102
C 0.000000	0.000000	0.000000
C 1.778304	0.000000	0.000000
C 2.389081	0.000000	1.429848
C 1.178792	0.260707	2.706391
H 1.698100	-0.115427	2.061516
H 3.463139	-0.020738	1.350244
H 0.871505	0.254780	0.050829
H 2.569494	-0.141975	-0.717092
H -0.387649	0.881911	0.497539
H -0.382369	-0.007587	-1.011839
H -0.384828	-0.874332	0.509781
H 1.646067	0.261218	3.681958
H 0.678875	1.212042	2.574206
H 0.428698	-0.522129	2.695104
14
Bead 5: Energy = -156.079718873
C 0.000000	0.000000	0.000000
C 1.709240	0.000000	0.000000
C 2.315777	0.000000	1.420083
C 1.309710	0.751276	2.579783
H 1.595413	-0.402797	2.111953
H 3.378082	-0.062665	1.341951
H 0.992826	0.800311	-0.078215
H 2.415086	-0.426549	-0.677024
H -0.391293	0.891630	0.484853
H -0.382136	-0.024161	-1.010974
H -0.386735	-0.876775	0.529695
H 1.781437	0.750873	3.552485
H 1.107859	1.790772	2.301253
H 0.358607	0.230947	2.668455
14
Bead 6: Energy = -156.352253995
C 0.000000	0.000000	0.000000
C 1.589717	0.000000	0.000000
C 2.196463	0.000000	1.420563
C 1.539595	1.083983	2.380096
H 1.602337	-0.650589	2.063454
H 3.264218	-0.105480	1.343062
H 1.399790	1.028876	-0.308009
H 2.149619	-0.679866	-0.617676
H -0.390998	0.892116	0.467264
H -0.383099	-0.040807	-1.012971
H -0.383097	-0.866504	0.542083
H 2.020619	1.077655	3.351238
H 1.644839	2.084516	1.956564
H 0.487716	0.888003	2.529169
14
Bead 7: Energy = -156.431333077
C 0.000000	0.000000	0.000000
C 1.541544	0.000000	0.000000
C 2.147601	0.000000	1.419164
C 1.881170	1.307377	2.191263
H 1.746998	-0.840767	1.977640
H 3.220273	-0.148991	1.343164
H 1.905639	0.867167	-0.542885
H 1.891362	-0.879636	-0.531478
H -0.394386	0.900866	0.454094
H -0.383397	-0.057451	-1.013002
H -0.378491	-0.853693	0.552765
H 2.371004	1.287863	3.158811
H 2.262894	2.158723	1.637102
H 0.821549	1.457929	2.358106
