5
Bead 0: Energy = -20.988275
Pd	0.075997	0.043743	0.448944
Pd	1.397994	2.333126	0.450156
Pd	2.719832	0.044589	0.448800
Pd	4.194287	2.420661	1.453119
H	1.397937	0.807336	1.501050
5
Bead 1: Energy = -22.705918
Pd	0.119051	-0.180859	0.344186
Pd	1.162517	2.282440	0.519479
Pd	2.951125	0.332254	0.411408
Pd	4.293687	2.553162	1.432646
H	1.573577	0.905982	1.530380
5
Bead 2: Energy = -23.449729
Pd	0.084273	-0.293673	0.266792
Pd	1.101165	2.221535	0.587558
Pd	3.098278	0.472129	0.413582
Pd	4.408998	2.773047	1.306338
H	1.754257	0.989145	1.593111
5
Bead 3: Energy = -23.540805
Pd	0.030835	-0.342386	0.231017
Pd	1.135619	2.181216	0.721240
Pd	3.158923	0.524672	0.477076
Pd	4.496650	2.960855	1.027804
H	1.896963	1.048850	1.654810
5
Bead 4: Energy = -23.304348
Pd	-0.009363	-0.347425	0.258887
Pd	1.167940	2.202655	0.823823
Pd	3.222972	0.540973	0.631525
Pd	4.551036	3.069131	0.650144
H	2.034450	1.100301	1.697020
5
Bead 5: Energy = -23.618882
Pd	-0.000507	-0.291808	0.319004
Pd	1.210072	2.254749	0.900055
Pd	3.319272	0.580061	0.734784
Pd	4.611437	3.092851	0.285489
H	2.210609	1.227560	1.743844
5
Bead 6: Energy = -24.056078
Pd	-0.001079	-0.304450	0.413698
Pd	1.208748	2.238238	0.977615
Pd	3.410169	0.721114	0.708751
Pd	4.751347	3.139398	0.021349
H	2.372491	1.372280	1.782124
5
Bead 7: Energy = -24.246421
Pd	0.048287	-0.365968	0.403749
Pd	1.221519	2.223350	1.036406
Pd	3.536680	0.886093	0.690154
Pd	4.894430	3.250731	-0.153603
H	2.532003	1.553468	1.826722
