3
Bead 0: Energy = -1.00336898873
H 0.000000	0.000000	0.000000
O 0.000000	0.000000	0.000000
H nan	nan	nan
3
Bead 1: Energy = -0.834829415144
H 0.000000	0.000000	0.000000
O 0.212004	0.000000	0.000000
H 0.000006	0.000000	0.001540
3
Bead 2: Energy = -0.612143557119
H 0.000000	0.000000	0.000000
O 0.522315	0.000000	0.000000
H 0.000059	0.000000	0.007871
3
Bead 3: Energy = -0.410442699571
H 0.000000	0.000000	0.000000
O 0.595003	0.000000	0.000000
H 0.000184	0.000000	0.014799
3
Bead 4: Energy = -0.471878993151
H 0.000000	0.000000	0.000000
O 0.660822	0.000000	0.000000
H 0.000397	0.000000	0.022905
3
Bead 5: Energy = -0.319328681524
H 0.000000	0.000000	0.000000
O 0.959693	0.000000	0.000000
H 0.000849	0.000000	0.040365
3
Bead 6: Energy = -0.108095047161
H 0.000000	0.000000	0.000000
O 1.492160	0.000000	0.000000
H 0.001632	0.000000	0.069764
3
Bead 7: Energy = -0.16160379011
H 0.000000	0.000000	0.000000
O 1.982354	0.000000	0.000000
H 0.001933	0.000000	0.087523
3
Bead 8: Energy = -0.531713913844
H 0.000000	0.000000	0.000000
O 2.532668	0.000000	0.000000
H 0.002789	0.000000	0.118823
3
Bead 9: Energy = -0.820000895403
H 0.000000	0.000000	0.000000
O 3.000000	0.000000	0.000000
H 0.004111	0.000000	0.157008
