14
Bead 0: Energy = -156.431333055
C 0.000000	0.000000	0.000000
C 1.541527	0.000000	0.000000
C 2.147866	0.000000	1.419070
C 1.879910	-1.306477	2.192078
H 1.748439	0.841594	1.977148
H 3.220734	0.147623	1.342899
H 1.905515	-0.867180	-0.542982
H 1.891363	0.879586	-0.531559
H -0.378587	0.853411	0.553174
H -0.383441	0.057912	-1.012986
H -0.394375	-0.901102	0.453680
H 2.369751	-1.286855	3.159644
H 0.820075	-1.455658	2.358980
H 2.260625	-2.158707	1.638562
14
Bead 1: Energy = -156.355308468
C 0.000000	0.000000	0.000000
C 1.610505	0.000000	0.000000
C 2.216579	0.000000	1.418682
C 1.563460	-1.088636	2.377144
H 1.624446	0.656499	2.061619
H 3.281765	0.104365	1.341538
H 1.429683	-1.029540	-0.311936
H 2.165941	0.682013	-0.615169
H -0.382776	0.865189	0.542082
H -0.382821	0.041455	-1.012285
H -0.393063	-0.897334	0.469234
H 2.044360	-1.081964	3.347959
H 0.505226	-0.895811	2.527282
H 1.672759	-2.088325	1.951777
14
Bead 2: Energy = -156.113229447
C 0.000000	0.000000	0.000000
C 1.848273	0.000000	0.000000
C 2.453553	0.000000	1.417039
C 1.371456	-0.825276	2.668996
H 1.743672	0.406701	2.100584
H 3.516202	0.062176	1.339230
H 1.151575	-0.802779	-0.082781
H 2.550643	0.434772	-0.676037
H -0.383619	0.869112	0.526037
H -0.381807	0.024958	-1.010304
H -0.389478	-0.888057	0.481980
H 1.842959	-0.824450	3.640975
H 0.420667	-0.314804	2.758960
H 1.179121	-1.857084	2.389406
14
Bead 3: Energy = -156.020524692
C 0.000000	0.000000	0.000000
C 2.361869	0.000000	0.000000
C 2.865092	0.000000	1.178009
C 1.260365	-0.363961	2.872344
H 1.993350	0.156177	1.975634
H 3.936935	0.020501	1.098643
H 1.221473	-0.340844	0.061902
H 3.150233	0.150184	-0.715192
H -0.384613	0.873419	0.510327
H -0.382360	0.008511	-1.011874
H -0.389679	-0.886949	0.499310
H 1.727725	-0.364242	3.847913
H 0.500491	0.417284	2.863662
H 0.767856	-1.318083	2.737040
14
Bead 4: Energy = -156.023632493
C 0.000000	0.000000	0.000000
C 2.364451	0.000000	0.000000
C 2.866406	0.000000	1.175114
C 1.256633	0.342824	2.872611
H 1.991183	-0.144443	1.975157
H 3.937673	-0.020419	1.095791
H 1.215107	0.319055	0.064737
H 3.153739	-0.140078	-0.715358
H -0.389406	0.885913	0.499902
H -0.382262	-0.007488	-1.011633
H -0.384735	-0.874148	0.509569
H 1.723803	0.343319	3.847971
H 0.755357	1.293220	2.741175
H 0.504353	-0.444773	2.860642
14
Bead 5: Energy = -156.10652398
C 0.000000	0.000000	0.000000
C 1.861646	0.000000	0.000000
C 2.465915	0.000000	1.414969
C 1.370482	0.822048	2.678506
H 1.752816	-0.399655	2.099963
H 3.528816	-0.062585	1.337170
H 1.154250	0.794286	-0.078374
H 2.566771	-0.428589	-0.677149
H -0.389538	0.887789	0.482793
H -0.381662	-0.024108	-1.009959
H -0.383684	-0.869728	0.525409
H 1.841670	0.821504	3.650191
H 1.172159	1.853260	2.401447
H 0.422678	0.305830	2.767017
14
Bead 6: Energy = -156.350639226
C 0.000000	0.000000	0.000000
C 1.591647	0.000000	0.000000
C 2.197293	0.000000	1.418142
C 1.525927	1.097489	2.394627
H 1.601127	-0.647668	2.061870
H 3.262467	-0.104571	1.340976
H 1.394312	1.030504	-0.305677
H 2.152247	-0.675868	-0.617223
H -0.390249	0.890460	0.466681
H -0.383536	-0.040618	-1.014293
H -0.382831	-0.865921	0.541438
H 2.007154	1.091208	3.366655
H 1.627587	2.096524	1.973881
H 0.476529	0.898010	2.542581
14
Bead 7: Energy = -156.431333077
C 0.000000	0.000000	0.000000
C 1.541544	0.000000	0.000000
C 2.147601	0.000000	1.419164
C 1.881170	1.307377	2.191263
H 1.746998	-0.840767	1.977640
H 3.220273	-0.148991	1.343164
H 1.905639	0.867167	-0.542885
H 1.891362	-0.879636	-0.531478
H -0.394386	0.900866	0.454094
H -0.383397	-0.057451	-1.013002
H -0.378491	-0.853693	0.552765
H 2.371004	1.287863	3.158811
H 2.262894	2.158723	1.637102
H 0.821549	1.457929	2.358106
